182
Lattice="12.85369 0.0 0.0 0.0 12.85369 0.0 0.0 0.0 12.85369" Properties=species:S:1:pos:R:3 temperature=600 density=0.9266511910359493 virial="35.33596281215595 9.288776036340266 -7.295002755181301 9.288776036340266 4.136503968853437 -0.8573997863637491 -7.295002755181301 -0.8573997863637491 24.877318409485024" energy=-24026.85743478 pbc="T T T"
C         10.49053        5.10665        1.11196
C          9.15658        5.81710        1.57492
O          9.49153        7.05624        2.10257
C         10.83036        7.04023        2.08787
O         11.48705        8.08375        2.42527
O         11.44194        5.98866        1.51223
H         10.73289        5.07736        0.00961
H         10.55446        4.07451        1.32455
H          8.58005        5.32457        2.36561
H          8.66408        6.10674        0.66109
C          3.38323        0.18709        6.96881
C          2.98366        1.38818        6.14538
O          1.61517        1.73335        6.52712
C          1.47668        1.26332        7.64139
O          0.71544        1.91866        8.33487
O          2.47715        0.44990        8.11259
H          4.34232        0.22518        7.24784
H          3.07508       -0.62647        6.41547
H          3.03248        1.29004        5.05338
H          3.91882        1.99850        6.31052
C          6.67537        8.59163        3.03742
C          5.95329        9.41518        4.13318
O          4.65230        9.31568        3.67554
C          4.45222        8.59134        2.63058
O          3.40186        8.35128        2.05883
O          5.60790        8.06823        2.27512
H          7.35844        7.82465        3.48089
H          7.25433        9.26055        2.48678
H          6.44081       10.42070        4.08123
H          5.78851        9.09118        5.14442
C          5.62985       11.67899       10.99306
C          4.44306       10.68659       11.19454
O          4.33189        9.90497       10.13993
C          5.14342       10.51847        9.22002
O          5.20334        9.94335        8.07805
O          5.68017       11.63169        9.60729
H          6.55967       11.22008       11.42216
H          5.50318       12.66790       11.41980
H          3.66835       11.32272       11.51861
H          4.69511       10.39257       12.17994
C         10.96494       10.32690        8.36552
O          9.93103        9.73902        7.99894
O         11.62189       10.34252        9.50171
O         11.73581       10.88127        7.40482
C         10.84369        9.91758       10.60906
C         11.14640       10.61391        6.14373
H         11.52930        9.77185       11.49634
H         10.03719       10.67196       10.90305
H         10.22951        9.10383       10.27187
H         11.85022       10.69367        5.29157
H         10.50873        9.66623        6.10069
H         10.34355       11.45654        5.97882
C          7.98901        8.01484        8.81521
O          6.95510        7.42698        8.44862
O          8.64596        8.03047        9.95141
O          8.75988        8.56923        7.85450
C          7.86775        7.60554       11.05874
C          8.17046        8.30187        6.59342
H          8.55338        7.45981       11.94604
H          7.06125        8.35990       11.35275
H          7.25358        6.79179       10.72157
H          8.87429        8.38163        5.74125
H          7.53281        7.35419        6.55039
H          7.36762        9.14450        6.42852
C          9.00073        2.60423        9.57241
O          9.18693        1.74794        8.68865
O          8.17484        2.66394       10.59079
O          9.94036        3.56450        9.71206
C          7.06184        1.79328       10.46614
C         10.97534        3.32229        8.77431
H          6.51778        1.76013       11.45684
H          6.32023        2.12952        9.66432
H          7.41946        0.88205       10.02471
H         11.93855        3.80597        9.03160
H         11.10046        2.22876        8.46600
H         10.62239        3.82068        7.76992
C          3.56201        4.94217        2.09499
O          3.86299        3.73529        2.05257
O          2.48649        5.57518        2.50156
O          4.56120        5.83580        1.92900
C          1.33530        4.74859        2.56402
C          5.77730        5.12669        1.76321
H          0.51672        5.31135        3.10423
H          0.94229        4.45266        1.53257
H          1.65229        3.78987        2.92932
H          6.68247        5.72775        1.98074
H          5.80505        4.09537        2.25529
H          5.83774        4.85446        0.62127
C          2.11023        7.69070        7.71959
O          3.29107        7.30185        7.77742
O          1.24649        7.76265        6.73393
O          1.45725        7.86378        8.88930
C          1.85165        7.74196        5.45107
C          2.33039        7.51267        9.94929
H          1.04217        7.60723        4.67314
H          2.41956        8.70398        5.21032
H          2.66759        7.04532        5.49614
H          1.81200        7.26810       10.89763
H          3.13530        6.74787        9.67775
H          2.97060        8.47346       10.17023
C          3.01209        3.42285        9.70555
C          2.61252        4.62394        8.88213
O          1.24403        4.96910        9.26387
C          1.10554        4.49907       10.37814
O          0.34430        5.15442       11.07161
O          2.10601        3.68566       10.84933
H          3.97118        3.46094        9.98458
H          2.70394        2.60928        9.15221
H          2.66134        4.52579        7.79013
H          3.54766        5.23426        9.04727
C         10.86476        2.92190        3.90665
C         10.53150        4.33658        4.31643
O          9.15615        4.32631        4.81231
C          8.95683        3.17349        5.14843
O          8.18157        3.08669        6.08720
O          9.91530        2.24605        4.82317
H         11.81112        2.68179        4.12095
H         10.56192        2.85373        2.92345
H         10.62651        5.11875        3.55244
H         11.47291        4.54636        4.90297
C          4.93700        5.77643        5.91234
C          6.31989        5.52418        5.36071
O          7.02519        4.69373        6.33565
C          6.14342        4.13892        6.96523
O          6.47261        3.02986        7.35448
O          4.85291        4.54997        6.74118
H          4.24112        5.77938        5.19476
H          5.03451        6.62385        6.49148
H          6.93830        6.40079        5.12917
H          6.01172        5.24261        4.31189
C          1.29884       11.10819        1.09078
C          2.67270       11.45810        1.61074
O          2.48337       12.33411        2.76589
C          1.35842       12.08772        3.16020
O          1.24619       12.21985        4.36842
O          0.57773       11.27584        2.37535
H          1.24933       10.16417        0.76594
H          1.07036       11.85950        0.42268
H          3.36911       11.93911        0.91207
H          3.10444       10.41513        1.60150
C         11.79576        6.72961        9.46028
O         12.30402        7.80818        9.81708
O         11.31589        5.70912       10.13191
O         11.42239        6.61883        8.16689
C         11.77489        5.65044       11.47289
C         11.69942        7.84459        7.51112
H         11.16894        4.87320       12.02728
H         12.87855        5.36540       11.55442
H         11.81091        6.65871       11.84054
H         11.12092        7.99722        6.57841
H         11.69404        8.76559        8.18808
H         12.82738        7.78722        7.18525
C          8.84361       10.97143        1.82796
C          9.02239       12.05808        2.96186
O         10.14161       12.81881        2.65415
C         10.64132       12.20089        1.57645
O         11.64345       12.69980        0.95934
O          9.93633       11.18241        1.05028
H          8.04203       11.13001        1.04881
H          8.56601       10.00832        2.15962
H          9.20621       11.69070        3.97744
H          8.23289       12.77142        2.79046
C          5.48208        1.59014        2.61598
C          6.20978        1.92392        3.97891
O          7.57613        1.95862        3.73821
C          7.66884        1.57042        2.46007
O          8.80209        1.57906        1.86872
O          6.52651        1.38485        1.77316
H          4.96963        2.42708        2.05769
H          4.67306        0.91533        2.68482
H          6.08927        1.20385        4.79569
H          6.00356        2.96679        4.15621
C          6.10309        4.98128       10.30335
C          6.17048        5.32959       11.84369
O          7.50748        5.41086       12.20686
C          8.14777        5.03460       11.09268
O          9.42397        5.08456       11.03956
O          7.41295        4.81621        9.98656
H          5.84980        5.80468        9.57353
H          5.36418        4.27978       10.02677
H          5.73752        4.60043       12.53726
H          5.87448        6.36388       11.90821
