49
Lattice="10.0 0.0 0.0 0.0 12.0 0.0 0.0 0.0 10.0" Properties=species:S:1:pos:R:3 Atoms.=T Timestep:=T 1200=T pbc="F F F"
H        4.76276000       5.27634000       9.67338000
C        5.43974000       6.02004000       0.09681540
O        5.23280000       7.21599000       9.85529000
O        6.37819000       5.65619000       0.99039100
H        6.85140000       6.31890000       1.52245000
C        4.07138000       1.16673000       5.83867000
C        4.08260000       2.47598000       6.13196000
C        4.54588000       3.53501000       5.17359000
C        4.35568000       4.96409000       5.67142000
C        5.00305000       5.95892000       4.71242000
C        4.79223000       7.38839000       5.24684000
C        5.40664000       8.47516000       4.35527000
C        4.96743000       9.89159000       4.79812000
H        3.75693000       0.42736700       6.55808000
H        4.35272000       0.84179300       4.84586000
H        3.79036000       2.80483000       7.14882000
H        4.02918000       3.40732000       4.23296000
H        5.56884000       3.30861000       4.85869000
H        4.73076000       5.17494000       6.69441000
H        3.28823000       5.11688000       5.75407000
H        4.51726000       5.89905000       3.75856000
H        6.07345000       5.79398000       4.50361000
H        5.15748000       7.47116000       6.30025000
H        3.69801000       7.68024000       5.31507000
H        5.08483000       8.34129000       3.27171000
H        6.57461000       8.37888000       4.37428000
H        3.83531000      10.01760000       4.69210000
H        5.50788000      10.61150000       4.08030000
H        5.29350000      10.12520000       5.81334000
H        1.22774000       8.69298000       6.97139000
C        1.96757000       9.49904000       6.98189000
O        1.83484000      10.48260000       6.23565000
O        3.11703000       9.33998000       7.64257000
H        3.75691000      10.05540000       7.72350000
H        0.20650000       4.86179000       8.47919000
C        1.01681000       5.35424000       7.92050000
O        0.87583700       5.50882000       6.70884000
O        2.07566000       5.89132000       8.57099000
H        2.83048000       6.23074000       8.05965000
H        1.28009000       7.31258000       4.12884000
C        1.56757000       6.73368000       3.29577000
O        1.09993000       5.61191000       3.11344000
O        2.42199000       7.25069000       2.38076000
H        2.63368000       6.82167000       1.53930000
H        7.72483000       4.21176000       8.40015000
C        7.72151000       4.60636000       7.37435000
O        7.76891000       3.87480000       6.42255000
O        7.56392000       5.94223000       7.21956000
H        7.48431000       6.32921000       6.33316000
49
Lattice="10.0 0.0 0.0 0.0 12.0 0.0 0.0 0.0 10.0" Properties=species:S:1:pos:R:3 Atoms.=T Timestep:=T 1400=T pbc="F F F"
H        4.91611000       4.74772000       0.69698100
C        5.69217000       5.46434000       0.51229100
O        5.35172000       6.61878000       0.28112000
O        6.97493000       5.16159000       0.76433000
H        7.73489000       5.70899000       0.63843600
C        3.25765000       1.96602000       5.76356000
C        4.24329000       2.87856000       6.00122000
C        4.73971000       3.80576000       4.94902000
C        4.52506000       5.25633000       5.35956000
C        5.10168000       6.26828000       4.37670000
C        4.90713000       7.69140000       4.88575000
C        5.52535000       8.82604000       4.02458000
C        5.26699000      10.12850000       4.73041000
H        2.92882000       1.30649000       6.56034000
H        2.83586000       1.79787000       4.81797000
H        4.64740000       2.90059000       6.97420000
H        4.27226000       3.65916000       3.93857000
H        5.79204000       3.49766000       4.90993000
H        4.93972000       5.42444000       6.38285000
H        3.44461000       5.33495000       5.37977000
H        4.51359000       6.17774000       3.45789000
H        6.25458000       6.07454000       4.21191000
H        5.21571000       7.66344000       5.98748000
H        3.81816000       7.94756000       4.86586000
H        5.01946000       8.80447000       3.06107000
H        6.63609000       8.79944000       3.87736000
H        4.12315000      10.27760000       4.87090000
H        5.75056000      10.99470000       4.15751000
H        5.78474000      10.14750000       5.68238000
H        1.41046000       8.60462000       6.82587000
C        1.80745000       9.56791000       7.08121000
O        1.62820000      10.54900000       6.35824000
O        2.66019000       9.70123000       8.09404000
H        3.17646000      10.47520000       8.40371000
H        1.18194000       3.92281000       8.63829000
C        1.37858000       4.82157000       8.16017000
O        1.10848000       4.87383000       6.96181000
O        1.86792000       5.87567000       8.83919000
H        1.67592000       6.75512000       8.49562000
H        1.38321000       7.42547000       4.14846000
C        1.28832000       7.14096000       3.02094000
O        0.20014100       6.85870000       2.50398000
O        2.36754000       7.27466000       2.26901000
H        2.38613000       6.90113000       1.38843000
H        7.54252000       3.45630000       8.50387000
C        7.76975000       3.87804000       7.57076000
O        7.86964000       3.20530000       6.57561000
O        7.83622000       5.25230000       7.46295000
H        7.90300000       5.62703000       6.59657000
49
Lattice="10.0 0.0 0.0 0.0 12.0 0.0 0.0 0.0 10.0" Properties=species:S:1:pos:R:3 Atoms.=T Timestep:=T 1600=T pbc="F F F"
H        5.46539000       3.91517000       0.88976400
C        6.02538000       4.85554000       0.84137700
O        5.37998000       5.91029000       0.67356800
O        7.33663000       4.90124000       1.20664000
H        7.75025000       5.74193000       1.20282000
C        2.77066000       2.70877000       4.96264000
C        3.84479000       3.31525000       5.52925000
C        4.74481000       4.18327000       4.68667000
C        4.58043000       5.63218000       5.17062000
C        5.41884000       6.61166000       4.30223000
C        5.08692000       8.10686000       4.70137000
C        5.77329000       9.15702000       3.78430000
C        5.35838000      10.56140000       4.25935000
H        2.04193000       2.20225000       5.56058000
H        2.51458000       2.80156000       3.92432000
H        4.02981000       3.30117000       6.65515000
H        4.50213000       4.19793000       3.52585000
H        5.80576000       3.82251000       4.84625000
H        5.07617000       5.73321000       6.20959000
H        3.51060000       5.92499000       5.18324000
H        5.07117000       6.61236000       3.24160000
H        6.50993000       6.36707000       4.57937000
H        5.51452000       8.12840000       5.75097000
H        3.98451000       8.34366000       4.75968000
H        5.51063000       9.07885000       2.67321000
H        6.89684000       8.91186000       3.87777000
H        4.24724000      10.77080000       3.98790000
H        6.09309000      11.28670000       3.75765000
H        5.56453000      10.84250000       5.28726000
H        2.39340000       9.25784000       6.18644000
C        1.82617000       9.92159000       6.87483000
O        1.07308000      10.79670000       6.44256000
O        2.03393000       9.85443000       8.18348000
H        1.74508000      10.62700000       8.75768000
H        2.63966000       3.23333000       8.49749000
C        2.08228000       4.23789000       8.55942000
O        1.29110000       4.46838000       7.65844000
O        2.29261000       5.09048000       9.61137000
H        1.93494000       5.97226000       9.61892000
H        0.08495800       6.92607000       3.15451000
C        0.48839800       7.55663000       2.52483000
O        9.86425000       8.52454000       2.09026000
O        1.79536000       7.45223000       2.15241000
H        2.26238000       8.12809000       1.65506000
H        8.44983000       2.12793000       8.41361000
C        8.27296000       2.88029000       7.58822000
O        8.83471000       2.82021000       6.53713000
O        7.29938000       3.75941000       7.80347000
H        7.04941000       4.39512000       7.16577000
49
Lattice="10.0 0.0 0.0 0.0 12.0 0.0 0.0 0.0 10.0" Properties=species:S:1:pos:R:3 Atoms.=T Timestep:=T 1800=T pbc="F F F"
H        5.92153000       3.29993000       0.97788900
C        6.33877000       4.28115000       0.93278900
O        5.68482000       5.15883000       0.40446400
O        7.42398000       4.55204000       1.68447000
H        7.67125000       5.44278000       1.90726000
C        2.89486000       3.08438000       4.36492000
C        4.02677000       3.47993000       4.94303000
C        4.88893000       4.49233000       4.22834000
C        4.33812000       5.92042000       4.36342000
C        5.28709000       7.02696000       3.83702000
C        4.76050000       8.42373000       4.27186000
C        5.77949000       9.47118000       4.03246000
C        5.38810000      10.82770000       4.62449000
H        2.31756000       2.40232000       4.90364000
H        2.67358000       3.35124000       3.34640000
H        4.23662000       3.21141000       5.95062000
H        4.82246000       4.23323000       3.15521000
H        5.88144000       4.36344000       4.63991000
H        4.21395000       6.13811000       5.43262000
H        3.26332000       5.93878000       3.87564000
H        5.34797000       6.98567000       2.75590000
H        6.21492000       6.91141000       4.46836000
H        4.59323000       8.33332000       5.36100000
H        3.81300000       8.73448000       3.79185000
H        5.97383000       9.46720000       2.92605000
H        6.73842000       9.23144000       4.43129000
H        4.30967000      11.05040000       4.30927000
H        6.14564000      11.64290000       4.32453000
H        5.33777000      10.87880000       5.74011000
H        2.59346000      11.10240000       6.76442000
C        1.67808000      10.64550000       6.98533000
O        0.73445700      10.91290000       6.31987000
O        1.50349000       9.85201000       8.05434000
H        0.59725700       9.47128000       8.18952000
H        2.72066000       3.93128000       8.50066000
C        2.20464000       4.28153000       9.31265000
O        1.08273000       4.78659000       9.14176000
O        2.79639000       4.21315000       0.54920800
H        2.48633000       4.68989000       1.30720000
H        9.48657000       8.06667000       0.80714100
C        0.11383300       8.52417000       1.70505000
O        9.92710000       9.66164000       2.03350000
O        0.95192800       7.75527000       2.39792000
H        1.35475000       8.03923000       3.22910000
H        9.18114000       0.78702000       7.31949000
C        8.81755000       1.76251000       7.21236000
O        9.52614000       2.69576000       6.83280000
O        7.48985000       1.99609000       7.39766000
H        7.12370000       2.88374000       7.35960000
49
Lattice="10.0 0.0 0.0 0.0 12.0 0.0 0.0 0.0 10.0" Properties=species:S:1:pos:R:3 Atoms.=T Timestep:=T 2000=T pbc="F F F"
H        7.92442000       3.33513000       9.86017000
C        7.38698000       4.14567000       0.37488900
O        6.54172000       4.76611000       9.78218000
O        7.54188000       4.26450000       1.73142000
H        6.97977000       4.81702000       2.31516000
C        2.66263000       3.40945000       5.00924000
C        3.96162000       3.58293000       5.20523000
C        4.71196000       4.64515000       4.45902000
C        4.33604000       6.05784000       4.94746000
C        5.12318000       7.15806000       4.20842000
C        4.65514000       8.55533000       4.70067000
C        5.48862000       9.65361000       4.00490000
C        4.96025000      11.02020000       4.29976000
H        2.21955000       2.52086000       5.41881000
H        2.05482000       4.06609000       4.43680000
H        4.51217000       2.89122000       5.85469000
H        4.59733000       4.47447000       3.32930000
H        5.79446000       4.54941000       4.69090000
H        4.43544000       6.19050000       5.97935000
H        3.22654000       6.22513000       4.90245000
H        4.92055000       7.11685000       3.08008000
H        6.26169000       7.08485000       4.31870000
H        4.68001000       8.61061000       5.80338000
H        3.53159000       8.73587000       4.45135000
H        5.48989000       9.55105000       2.90435000
H        6.53528000       9.54132000       4.25474000
H        3.86427000      11.08580000       3.88381000
H        5.55911000      11.80050000       3.72745000
H        5.06670000      11.27140000       5.38476000
H        1.37081000      11.97510000       7.07399000
C        1.34720000      10.86960000       6.81401000
O        1.33627000      10.53100000       5.69618000
O        1.26229000       9.93764000       7.75345000
H        1.34630000       8.99393000       7.54073000
H        2.09101000       4.00829000       8.61663000
C        1.94273000       4.31140000       9.69039000
O        1.10528000       5.17230000       9.99933000
O        2.80581000       3.78625000       0.59937300
H        2.59852000       3.78779000       1.51990000
H        1.02144000       9.06876000       0.96523200
C        0.33250900       9.19189000       1.68377000
O        9.92242000      10.30760000       1.93279000
O        9.73331000       8.14291000       2.26461000
H        9.23127000       8.34850000       3.07135000
H        8.33765000       1.53702000       8.44138000
C        8.68028000       1.58401000       7.36335000
O        9.64198000       2.28860000       7.05718000
O        8.11058000       0.80211400       6.43937000
H        8.44383000       0.76324400       5.50782000
49
Lattice="10.0 0.0 0.0 0.0 12.0 0.0 0.0 0.0 10.0" Properties=species:S:1:pos:R:3 Atoms.=T Timestep:=T 2200=T pbc="F F F"
H        8.61359000       2.95334000       0.07295400
C        8.03636000       3.84915000       0.12219000
O        7.47324000       4.34724000       9.13254000
O        7.71659000       4.25713000       1.38719000
H        7.17730000       5.09517000       1.45386000
C        2.91051000       3.15859000       5.83826000
C        3.80054000       3.99674000       6.39843000
C        4.73672000       4.88084000       5.53261000
C        4.37330000       6.36654000       5.71641000
C        5.07462000       7.27772000       4.70265000
C        4.82799000       8.75096000       4.92759000
C        5.25728000       9.57363000       3.75075000
C        5.09470000      11.07060000       3.94136000
H        2.50684000       2.32756000       6.37873000
H        2.73929000       3.11878000       4.78330000
H        3.89975000       3.99822000       7.49610000
H        4.70235000       4.64129000       4.50386000
H        5.76930000       4.72965000       5.88063000
H        4.40227000       6.75713000       6.73653000
H        3.30668000       6.44834000       5.39594000
H        4.56670000       6.98262000       3.75487000
H        6.08283000       7.08960000       4.59244000
H        5.33036000       8.98224000       5.90924000
H        3.73452000       8.99746000       5.01207000
H        4.65661000       9.16137000       2.93489000
H        6.34057000       9.39117000       3.49015000
H        3.98071000      11.26870000       3.91648000
H        5.51306000      11.63280000       3.10586000
H        5.49484000      11.29880000       4.94254000
H        2.91212000      10.58420000       6.59781000
C        1.93346000      10.29840000       6.42607000
O        1.36022000      10.36060000       5.35554000
O        1.14820000      10.00790000       7.47489000
H        0.21182700      10.01140000       7.33245000
H        1.68036000       4.79402000       8.61225000
C        1.73039000       4.64467000       9.68186000
O        1.43662000       5.54475000       0.45213200
O        2.16974000       3.42968000       0.13192500
H        2.73432000       3.38494000       0.88746400
H        0.35961300       9.19239000       3.26315000
C       -0.20408400       9.62359000       2.40124000
O        0.21031100      10.60560000       1.86232000
O        8.70969000       9.02698000       1.90184000
H        8.34095000       9.29731000       1.03087000
H        7.35755000       0.82959800       7.22160000
C        8.26310000       0.98996200       6.71026000
O        9.08167000       1.70826000       7.26082000
O        8.52896000       0.41571500       5.56117000
H        9.39174000       0.54045400       5.07067000
49
Lattice="10.0 0.0 0.0 0.0 12.0 0.0 0.0 0.0 10.0" Properties=species:S:1:pos:R:3 Atoms.=T Timestep:=T 2400=T pbc="F F F"
H        6.95591000       2.81940000       9.72315000
C        7.80301000       3.53615000       9.70518000
O        8.41011000       3.73779000       8.68654000
O        7.98550000       4.28030000       0.81947000
H        8.68995000       4.97760000       0.90512100
C        3.67895000       2.99756000       7.14673000
C        3.90795000       4.31750000       7.17671000
C        4.78678000       4.86744000       6.08318000
C        4.29577000       6.27745000       5.72957000
C        5.35736000       7.05353000       4.85203000
C        4.94960000       8.55431000       4.63143000
C        6.11701000       9.32698000       3.95413000
C        5.68546000      10.67950000       3.43780000
H        3.19642000       2.54468000       7.96538000
H        4.07468000       2.40048000       6.31341000
H        3.55521000       4.89557000       8.01409000
H        4.76937000       4.30927000       5.17269000
H        5.83991000       4.79503000       6.46787000
H        4.16831000       6.90916000       6.63682000
H        3.26401000       6.20440000       5.27178000
H        5.55265000       6.54857000       3.81067000
H        6.33027000       6.90742000       5.27439000
H        4.61509000       8.96730000       5.62325000
H        4.03581000       8.64300000       3.99503000
H        6.52307000       8.69906000       3.10775000
H        6.91129000       9.39866000       4.70188000
H        4.73066000      10.58460000       2.83523000
H        6.54634000      11.07230000       2.87248000
H        5.40576000      11.32600000       4.35198000
H        2.28179000      11.21750000       7.51818000
C        1.37708000      10.74790000       7.01454000
O        1.09692000      10.89510000       5.84386000
O        0.49258400      10.11050000       7.74976000
H        9.66291000       9.86138000       7.38366000
H        0.82197200       5.68046000       9.37899000
C        1.41104000       5.09011000      10.01190000
O        2.30232000       5.61376000       0.59971600
O        1.24985000       3.74073000       9.98918000
H        1.50016000       3.17409000       0.71757200
H        8.77819000       9.27533000       3.01800000
C        9.14439000       9.93918000       2.22872000
O        0.27704800      10.35900000       2.25506000
O        8.39527000      10.25400000       1.16949000
H        8.71758000      10.77390000       0.40344800
H        7.38763000      11.39670000       6.32684000
C        8.06395000       0.22178000       6.07248000
O        8.43224000       0.91635600       7.02083000
O        8.53013000       0.50643000       4.82984000
H        9.15991000       1.24587000       4.71800000
49
Lattice="10.0 0.0 0.0 0.0 12.0 0.0 0.0 0.0 10.0" Properties=species:S:1:pos:R:3 Atoms.=T Timestep:=T 2600=T pbc="F F F"
H        7.64020000       2.14826000       9.50824000
C        7.75775000       3.19216000       9.29737000
O        8.55679000       3.52152000       8.45556000
O        6.94514000       4.12149000       9.89588000
H        6.89225000       5.05415000       9.61367000
C        4.41604000       2.70487000       7.66867000
C        4.11459000       3.98274000       7.37230000
C        5.09772000       4.81884000       6.64213000
C        4.49618000       6.13422000       6.17069000
C        5.48116000       7.06121000       5.44055000
C        4.96023000       8.41504000       5.06202000
C        5.61616000       8.94299000       3.82361000
C        4.98662000      10.25640000       3.39035000
H        3.70040000       2.14406000       8.24359000
H        5.36677000       2.26271000       7.38588000
H        3.16049000       4.45824000       7.70093000
H        5.49741000       4.23837000       5.73520000
H        5.94591000       5.04905000       7.43187000
H        4.26913000       6.73766000       7.07072000
H        3.58495000       5.90278000       5.52810000
H        5.97118000       6.50889000       4.51759000
H        6.33321000       7.26621000       6.02843000
H        5.06968000       9.13854000       5.88845000
H        3.89294000       8.42574000       4.85291000
H        5.60857000       8.19839000       3.01118000
H        6.66991000       9.13393000       4.03056000
H        3.92232000      10.08590000       3.12912000
H        5.49447000      10.75490000       2.46361000
H        5.11300000      11.04900000       4.25946000
H        1.33568000      11.94360000       8.10913000
C        0.96326300      11.16230000       7.49954000
O        1.28890000      11.09450000       6.35394000
O        0.05773080      10.28540000       7.90456000
H        9.74879000       9.55119000       7.37219000
H        1.26726000       6.45781000       0.10518900
C        1.83066000       5.50490000       0.37005200
O        3.03318000       5.53905000       0.52669700
O        1.12350000       4.36051000       0.58078100
H        1.61544000       3.51752000       0.60977600
H        9.97772000       9.43346000       0.62448800
C        9.84410000      10.30220000       1.19486000
O        0.34388300      10.51400000       2.32543000
O        9.16478000      11.30310000       0.64460100
H        8.84413000       0.00305545       1.24107000
H        8.06844000      10.67200000       5.62530000
C        7.99132000      11.75810000       5.56859000
O        7.65938000       0.34969600       6.58728000
O        8.27975000       0.42657100       4.46936000
H        8.24934000       1.36774000       4.42786000
49
Lattice="10.0 0.0 0.0 0.0 12.0 0.0 0.0 0.0 10.0" Properties=species:S:1:pos:R:3 Atoms.=T Timestep:=T 2800=T pbc="F F F"
H        7.12280000       2.17301000       8.60620000
C        7.54802000       3.03820000       9.12245000
O        8.36887000       3.75319000       8.51589000
O        7.09213000       3.37144000       0.33760600
H        7.51796000       4.10911000       0.75949900
C        4.55655000       2.25632000       7.49417000
C        4.46410000       3.60660000       7.31669000
C        4.86382000       4.30053000       6.02609000
C        4.26759000       5.75559000       6.02176000
C        5.00984000       6.51915000       4.96816000
C        4.51467000       7.95567000       4.91098000
C        5.25512000       8.82512000       3.81324000
C        4.63221000      10.21020000       3.78433000
H        4.34431000       1.77961000       8.44176000
H        4.89377000       1.62137000       6.69539000
H        4.08387000       4.14695000       8.15846000
H        4.50517000       3.78689000       5.20402000
H        5.94534000       4.35876000       6.01425000
H        4.42687000       6.23288000       7.04346000
H        3.22494000       5.69200000       5.64127000
H        4.93805000       6.13443000       3.94018000
H        6.03941000       6.51862000       5.22194000
H        4.75942000       8.47301000       5.90294000
H        3.39430000       8.09253000       4.77617000
H        5.30458000       8.41195000       2.72853000
H        6.35451000       8.93120000       4.05582000
H        3.65738000      10.21620000       3.42259000
H        5.26184000      10.71650000       3.03416000
H        4.89709000      10.71250000       4.72245000
H        0.21458900       0.39663900       7.15260000
C        0.68570900      11.41740000       7.26481000
O        1.88533000      11.36870000       7.15731000
O       10.03560000      10.26440000       7.42741000
H        0.60468600       9.47683000       7.58609000
H        1.99626000       6.96480000       0.75628600
C        2.46282000       6.06559000       0.95043000
O        3.64647000       5.97506000       1.33618000
O        1.71755000       4.94225000       0.86673600
H        2.13495000       4.07177000       1.10228000
H        1.77674000      11.05270000       1.27333000
C        0.65967100      11.25710000       1.49485000
O        0.09257820      10.58840000       2.29828000
O        9.96270000       0.18088900       0.82399800
H        9.08012000       0.50025500       1.05436000
H        8.22394000      10.81340000       5.38472000
C        7.59232000      11.63050000       5.15626000
O        6.78915000       0.04089670       5.99189000
O        7.72894000       0.27495100       4.00155000
H        7.21841000       1.02657000       3.77866000
49
Lattice="10.0 0.0 0.0 0.0 12.0 0.0 0.0 0.0 10.0" Properties=species:S:1:pos:R:3 Atoms.=T Timestep:=T 3000=T pbc="F F F"
H        7.80977000       2.03160000       8.66712000
C        7.92935000       2.82381000       9.40879000
O        7.93769000       3.98226000       9.01084000
O        8.06626000       2.54597000       0.71283200
H        8.14880000       3.15338000       1.42376000
C        3.96588000       1.84377000       6.60534000
C        4.35497000       3.08627000       6.94574000
C        4.80812000       4.11835000       5.95690000
C        4.10888000       5.51158000       5.99266000
C        4.86654000       6.54274000       5.17839000
C        4.00752000       7.77233000       5.04744000
C        4.60562000       8.91672000       4.22624000
C        3.56041000       9.99439000       3.82859000
H        3.68198000       1.16857000       7.43951000
H        3.91082000       1.41039000       5.60854000
H        4.24895000       3.47181000       7.97389000
H        4.69224000       3.61709000       4.91222000
H        5.92799000       4.29234000       6.20531000
H        4.18870000       5.89345000       7.03269000
H        3.09598000       5.40392000       5.55978000
H        5.00477000       6.04985000       4.17538000
H        5.88445000       6.72755000       5.61944000
H        3.79035000       8.16681000       6.03030000
H        3.08913000       7.41130000       4.58932000
H        4.95626000       8.47596000       3.24029000
H        5.50994000       9.34792000       4.63978000
H        2.72986000       9.60789000       3.32932000
H        4.10894000      10.75320000       3.19116000
H        3.05687000      10.42170000       4.73544000
H        1.42418000      -0.17333400       6.17252000
C        1.06520000      11.19070000       6.99272000
O        1.50594000      11.38810000       8.10074000
O        0.15610500      10.27420000       6.81548000
H       -0.06774770       9.66945000       7.57937000
H        2.73715000       6.91303000       2.19997000
C        2.92276000       6.22944000       1.33198000
O        4.03277000       6.16886000       0.82818900
O        1.93903000       5.45845000       0.85011200
H        2.06420000       4.70360000       0.20995300
H        1.05640000       0.31155900       3.21107000
C        0.72830700      12.06730000       2.26506000
O        0.32384600      10.95950000       2.11533000
O        0.81086300       0.91387300       1.22238000
H       10.45910000       0.60122300       0.38338000
H        8.40772000      10.78910000       4.28937000
C        7.62242000      11.57490000       4.50617000
O        7.24076000      11.77110000       5.64915000
O        7.13150000       0.37113000       3.50276000
H        6.46091000       1.04520000       3.68421000
49
Lattice="10.0 0.0 0.0 0.0 12.0 0.0 0.0 0.0 10.0" Properties=species:S:1:pos:R:3 Atoms.=T Timestep:=T 3200=T pbc="F F F"
H        8.04978000       2.32993000       8.52867000
C        8.00856000       2.67196000       9.55681000
O        7.43540000       3.74566000       9.77975000
O        8.64704000       2.02268000       0.55087500
H        8.60540000       2.31586000       1.45622000
C        4.35249000       2.14316000       5.96179000
C        4.79877000       3.01414000       6.88571000
C        5.26258000       4.42418000       6.59667000
C        4.21504000       5.29422000       5.87959000
C        4.84918000       6.70822000       5.51400000
C        3.66284000       7.55079000       5.02508000
C        4.12426000       8.89457000       4.45553000
C        2.96838000       9.94791000       4.38368000
H        4.06795000       1.13904000       6.26237000
H        4.41460000       2.34636000       4.88519000
H        4.73804000       2.74812000       7.92960000
H        6.11831000       4.38959000       5.97753000
H        5.56318000       4.92536000       7.45343000
H        3.33506000       5.47792000       6.56000000
H        3.89579000       4.79740000       4.98486000
H        5.56102000       6.57134000       4.65131000
H        5.43872000       7.19004000       6.31222000
H        2.96970000       7.72440000       5.90848000
H        3.07202000       6.96421000       4.27411000
H        4.58794000       8.74042000       3.38513000
H        4.95776000       9.29710000       5.02201000
H        2.10241000       9.71820000       3.85483000
H        3.39790000      10.85790000       3.85313000
H        2.77273000      10.25860000       5.41652000
H        0.33982700       0.02241100       7.74315000
C        0.29960200      10.97530000       7.53595000
O        0.19859000      10.19030000       8.46757000
O        0.38708200      10.45720000       6.30520000
H        0.44176200       9.48576000       6.11823000
H        4.00486000       4.84054000       0.82626200
C        3.41292000       5.65682000       0.45652500
O        3.83237000       6.26794000       9.48833000
O        2.19816000       5.95295000       0.93806600
H        1.80650000       6.84709000       0.74456500
H        0.28142500       0.81426100       3.50061000