12
Properties=species:S:1:pos:R:3:molID:I:1:momenta:R:3:forces:R:3 Nmols=1 Comp=DMC(1) energy=-589.6853637695312 free_energy=-589.6853637695312 stress="0.0 0.0 0.0 0.0 0.0 0.0 0.0 0.0 0.0" pbc="F F F"
C       -0.06354920       0.02615914       0.03273994        0      -0.12287682      -0.79020058       0.51340690      -1.05208874      -1.71871591      -2.58734345
O       -1.09745824      -0.56171083      -0.33384407        0      -0.20335996       0.41048338       0.31781325       1.84014630       1.41184139       2.82851744
O        0.59339279       0.04178514       1.16893291        0      -0.49094380       0.23594467       0.20313855      -0.86597502       0.41781434       0.48855636
O        0.70731479       0.58054012      -0.92796504        0      -0.40071584       0.62855499      -0.55439536      -0.34956798      -0.68418932      -0.23146415
C       -0.18480919      -0.38314587       2.27627182        0      -0.08395368      -0.25763265      -0.01886604      -0.55816078       1.03849626       1.28245425
C        0.11790480       0.31317315      -2.18905210        0       0.82339914      -0.13156770      -0.51294492      -1.97136629       1.45120382      -1.67826200
H        0.50081283      -0.52887988       3.16355896        0       0.17421285       0.08539975       0.08731101      -0.83236265      -0.16177981      -1.21115589
H       -0.99130619       0.37122315       2.57026887        0       0.28092270      -0.19821686      -0.19050036       1.19340158      -0.27122939      -0.29284468
H       -0.79898220      -1.19689691       1.93909299        0       0.06188514       0.01473559       0.19507275       0.13953032      -1.04181623       0.30314678
H        0.82173383       0.39293513      -3.04121518        0       0.05037215      -0.16847825      -0.05185023      -0.07310906      -0.15827055       0.92188227
H       -0.51975018      -0.63449883      -2.23208618        0      -0.10480337       0.01358255      -0.06757145       1.31996989       0.95049024       0.07259684
H       -0.68493521       1.15580308      -2.35394812        0       0.01586149       0.15739511       0.07938589       1.20958221      -1.23384476       0.10391595
