12
Properties=species:S:1:pos:R:3:molID:I:1:momenta:R:3:force_mace:R:3:forces:R:3 Nmols=1 Comp=DMC(1) energy_mace=-67.92330932617188 energy=-67.92330932617188 free_energy=-67.92330932617188 stress="0.0 0.0 0.0 0.0 0.0 0.0 0.0 0.0 0.0" pbc="F F F"
C       -0.06354920       0.02615914       0.03273994        0       1.33991095       0.19878032       0.55671667      -0.59671134      -1.59123731      -1.40240431      -0.59671134      -1.59123731      -1.40240431
O       -1.09745824      -0.56171083      -0.33384407        0      -0.03105084       0.26324437       0.39105043       0.47906590       0.72349077       1.53658319       0.47906590       0.72349077       1.53658319
O        0.59339279       0.04178514       1.16893291        0      -0.06204108      -0.94721010      -0.39894575       0.61288214       0.90691704      -0.19157410       0.61288214       0.90691704      -0.19157410
O        0.70731479       0.58054012      -0.92796504        0      -0.73912539       0.47508673       0.12792315       1.03336895       0.36341882       0.46862030       1.03336895       0.36341882       0.46862030
C       -0.18480919      -0.38314587       2.27627182        0      -0.18153081       0.28776973       0.66355346      -1.00589657       0.89906681       1.68651426      -1.00589657       0.89906681       1.68651426
C        0.11790480       0.31317315      -2.18905210        0      -0.23750489      -0.47990007      -0.65183819      -3.22365189       0.55980456      -1.66091347      -3.22365189       0.55980456      -1.66091347
H        0.50081283      -0.52887988       3.16355896        0      -0.13385754      -0.08858415      -0.04933308      -0.61837566      -0.12750021      -0.95737547      -0.61837566      -0.12750021      -0.95737547
H       -0.99130619       0.37122315       2.57026887        0      -0.24955936       0.12880142      -0.13425716       0.89572299      -0.24028695      -0.16314879       0.89572299      -0.24028695      -0.16314879
H       -0.79898220      -1.19689691       1.93909299        0       0.21666726      -0.03190131      -0.42276003      -0.15938392      -1.18867421       0.30851242      -0.15938392      -1.18867421       0.30851242
H        0.82173383       0.39293513      -3.04121518        0       0.10046716       0.14335649       0.11337336       0.34200579      -0.00478243       0.62855971       0.34200579      -0.00478243       0.62855971
H       -0.51975018      -0.63449883      -2.23208618        0       0.02828386      -0.00910104       0.10390504       1.01581478       0.87737513      -0.29270306       1.01581478       0.87737513      -0.29270306
H       -0.68493521       1.15580308      -2.35394812        0      -0.05065932       0.05965762      -0.29938790       1.22515917      -1.17759204       0.03932908       1.22515917      -1.17759204       0.03932908
12
Properties=species:S:1:pos:R:3:molID:I:1:momenta:R:3:force_mace:R:3:forces:R:3 Nmols=1 Comp=DMC(1) energy_mace=-68.06181335449219 energy=-68.06181335449219 free_energy=-68.06181335449219 stress="0.0 0.0 0.0 0.0 0.0 0.0 0.0 0.0 0.0" pbc="F F F"
C       -0.02676169      -0.02301829      -0.01093211        0      -0.08014789      -0.84474036      -1.11565368      -0.26169735      -0.16872869       0.12400755      -0.26169735      -0.16872869       0.12400755
O       -1.09078383      -0.55698544      -0.28037316        0       0.19940904       0.17721205       1.28574227      -0.23017174      -0.05966008       0.17437387      -0.23017174      -0.05966008       0.17437387
O        0.59963771       0.00086742       1.15829877        0       0.20077765      -0.35405431      -0.28746612       0.22597359       0.41338575       0.54887444       0.22597359       0.41338575       0.54887444
O        0.72523655       0.62431597      -0.91618255        0       0.32806504      -0.07504936      -0.06045257      -0.68816066      -0.32423392      -0.33527106      -0.68816066      -0.32423392      -0.33527106
C       -0.26308218      -0.37134458       2.29841357        0      -0.39690521      -0.07878883      -0.31182104       2.36570334       0.46267819       1.29529107       2.36570334       0.46267819       1.29529107
C        0.07632141       0.33567464      -2.24086246        0      -0.13855716       0.57091697      -0.11857975      -0.10815567       2.00880289       0.08197880      -0.10815567       2.00880289       0.08197880
H        0.48105342      -0.59536940       3.17591801        0      -0.04618482       0.12812616       0.08787043      -1.23154759       0.70792842      -1.22725797      -1.23154759       0.70792842      -1.22725797
H       -0.95465043       0.45454059       2.54375713        0      -0.09277957       0.25971306       0.23524767       0.02691548      -0.35812837       0.03810671       0.02691548      -0.35812837       0.03810671
H       -0.68838576      -1.30713422       2.05712805        0      -0.19131370      -0.16604668       0.51873484      -1.16652715      -1.09674215      -0.17501310      -1.16652715      -1.09674215      -0.17501310
H        0.95208938       0.56087752      -2.82972128        0       0.08578737      -0.01200858       0.01069331       0.21195398      -0.58175242      -1.04477990       0.21195398      -0.58175242      -1.04477990
H       -0.37518072      -0.67178884      -2.31298469        0       0.26028471      -0.02216585      -0.17739865       0.24377748       0.55225277      -0.28600162       0.24377748       0.55225277      -0.28600162
H       -0.62275807       1.21544881      -2.56678517        0      -0.12843552       0.41688578      -0.06691669       0.61193645      -1.55580199       0.80569124       0.61193645      -1.55580199       0.80569124
12
Properties=species:S:1:pos:R:3:molID:I:1:momenta:R:3:force_mace:R:3:forces:R:3 Nmols=1 Comp=DMC(1) energy_mace=-68.00391387939453 energy=-68.00391387939453 free_energy=-68.00391387939453 stress="0.0 0.0 0.0 0.0 0.0 0.0 0.0 0.0 0.0" pbc="F F F"
C       -0.00544418      -0.09014236      -0.07204318        0       0.29369340      -0.28909420       0.19326156      -0.48702934       1.12691021       1.63287485      -0.48702934       1.12691021       1.63287485
O       -1.12689807      -0.54209653      -0.19108136        0      -1.84692086       0.43562096       1.44255876      -0.12901413      -0.45902199      -0.42695355      -0.12901413      -0.45902199      -0.42695355
O        0.59083549      -0.02765485       1.16011801        0      -0.19751111      -0.38494728       0.61484053      -0.02423647      -0.30756554      -0.72024786      -0.02423647      -0.30756554      -0.72024786
O        0.73442239       0.61349250      -0.95146428        0       0.47152872      -0.82572406      -1.07986316      -0.18183461      -0.68085957       0.61737406      -0.18183461      -0.68085957       0.61737406
C       -0.30384307      -0.36894108       2.28761399        0       0.45334740      -0.21351756      -0.24933777       2.69254303       1.54652548       1.49447978       2.69254303       1.54652548       1.49447978
C        0.13556201       0.41879801      -2.24357724        0       1.73946957       0.13101165      -0.33634512      -1.52409744      -0.77913237      -1.27901125      -1.52409744      -0.77913237      -1.27901125
H        0.47936485      -0.39254898       3.12439742        0       0.16703304       0.30037895       0.00936952      -1.07185316      -0.15726592      -0.68761253      -1.07185316      -0.15726592      -0.68761253
H       -0.94936830       0.46549962       2.53513140        0      -0.36508868       0.28447735      -0.08458233      -0.38778371       0.44231150      -0.19808941      -0.38778371       0.44231150      -0.19808941
H       -0.85962177      -1.26491386       2.33381406        0      -0.15568922       0.18235775      -0.13299298      -0.62942505      -1.50584292      -0.72158670      -0.62942505      -1.50584292      -0.72158670
H        0.93515532       0.38240073      -2.93268017        0      -0.10409015       0.02946351      -0.13990574       1.42000699       0.74111962      -0.90764368       1.42000699       0.74111962      -0.90764368
H       -0.27656248      -0.60114513      -2.45334391        0      -0.16556827       0.12643431      -0.05882959      -0.30332360       0.42314351       0.59967411      -0.30332360       0.42314351       0.59967411
H       -0.62961313       1.18482090      -2.55785114        0      -0.29020380       0.22353875      -0.17817380       0.62604731      -0.39032170       0.59674215       0.62604731      -0.39032170       0.59674215
12
Properties=species:S:1:pos:R:3:molID:I:1:momenta:R:3:force_mace:R:3:forces:R:3 Nmols=1 Comp=DMC(1) energy_mace=-67.92337036132812 energy=-67.92337036132812 free_energy=-67.92337036132812 stress="0.0 0.0 0.0 0.0 0.0 0.0 0.0 0.0 0.0" pbc="F F F"
C       -0.05741072      -0.07860994      -0.03105048        0      -1.49302339       0.43460356       0.47400113      -1.17345750       0.09920308       0.00236976      -1.17345750       0.09920308       0.00236976
O       -1.21175808      -0.50217858      -0.14467497        0      -0.32409252       1.19662313       0.38964588       1.09425616       0.29738832      -0.23098235       1.09425616       0.29738832      -0.23098235
O        0.60260388      -0.09285061       1.15532424        0       0.68567404      -0.91174247      -0.32867413       1.22890615       0.52092195      -1.27391839       1.22890615       0.52092195      -1.27391839
O        0.71040836       0.53909412      -0.96385263        0      -0.34334271      -1.40662114       1.08511264       1.01585197      -0.65328538       2.44472480       1.01585197      -0.65328538       2.44472480
C       -0.25313731      -0.32563670       2.26404938        0       0.50281507       0.30459721      -0.67452712       1.52662063      -0.97195303       2.56246948       1.52662063      -0.97195303       2.56246948
C        0.24646979       0.44321736      -2.31331827        0       1.06002831      -0.34506534      -1.60671950      -3.00744486       0.08698499       1.91889048      -3.00744486       0.08698499       1.91889048
H        0.35462802      -0.35006920       3.28769810        0      -0.25195824      -0.36212084       0.22305769      -0.61565578       0.05284398      -1.85033727      -0.61565578       0.05284398      -1.85033727
H       -0.94268366       0.45602445       2.37897954        0      -0.29940965       0.09210955      -0.03306905      -1.35726523       1.35242486       0.12689920      -1.35726523       1.35242486       0.12689920
H       -0.74400164      -1.27312006       2.17003588        0       0.45068312       0.06026347       0.04030965      -0.51272964      -0.78654432      -0.04515410      -0.51272964      -0.78654432      -0.04515410
H        1.09480143       0.60467221      -2.90536226        0       0.23549370       0.07933451       0.21805631       1.22342396      -0.28547436      -1.57538700       1.22342396      -0.28547436      -1.57538700
H       -0.41261756      -0.47393494      -2.31761763        0      -0.12203403       0.14907120       0.06495831       0.69344115       0.51178420      -1.12398779       0.69344115       0.51178420      -1.12398779
H       -0.42562768       1.33382505      -2.34287007        0      -0.10083371       0.70894727       0.14784811      -0.11594689      -0.22429416      -0.95558709      -0.11594689      -0.22429416      -0.95558709
12
Properties=species:S:1:pos:R:3:molID:I:1:momenta:R:3:force_mace:R:3:forces:R:3 Nmols=1 Comp=DMC(1) energy_mace=-67.86164855957031 energy=-67.86164855957031 free_energy=-67.86164855957031 stress="0.0 0.0 0.0 0.0 0.0 0.0 0.0 0.0 0.0" pbc="F F F"
C       -0.12207044      -0.06147983       0.00623149        0       0.58231430      -0.22151705       0.46249340       1.10201669      -0.04634514      -0.44650477       1.10201669      -0.04634514      -0.44650477
O       -1.25204047      -0.44122368      -0.15586024        0      -1.16855332       1.06303152      -0.68963053      -0.79777253      -0.11174327       0.19458924      -0.79777253      -0.11174327       0.19458924
O        0.66601654      -0.10920375       1.13509822        0       0.47890653       0.28336700       0.45985607      -1.10385430       0.30512002       0.82191664      -1.10385430       0.30512002       0.82191664
O        0.70531909       0.44231114      -0.89741065        0      -0.02429914      -1.18102853       0.68775203       0.36726981       0.61207145      -2.02333856       0.36726981       0.61207145      -2.02333856
C       -0.27701878      -0.30380115       2.28354053        0      -0.34760351      -0.96010372       0.60216801       3.46922398      -4.05795622       0.11263900       3.46922398      -4.05795622       0.11263900
C        0.28621788       0.49925731      -2.34708138        0       0.61643134       0.36263791       0.15063130      -1.26821327      -3.13492012       0.74689621      -1.26821327      -3.13492012       0.74689621
H        0.34187965      -0.45008745       3.22475400        0       0.20430126       0.34028371      -0.11817631      -0.52744567       0.97808158      -0.74848557      -0.52744567       0.97808158      -0.74848557
H       -1.02651536       0.38854154       2.26405766        0      -0.16405530       0.07033464      -0.23267072      -2.16331005       2.10561442       0.45890775      -2.16331005       2.10561442       0.45890775
H       -0.62020935      -1.34732225       2.10937784        0      -0.07382508       0.28613357      -0.13103605      -0.55790788       0.43035656       0.26386744      -0.55790788       0.43035656       0.26386744
H        1.15343353       0.41406082      -2.93795502        0      -0.09860524      -0.48877437      -0.13099887       1.61765242      -0.13539138      -0.48685047       1.61765242      -0.13539138      -0.48685047
H       -0.42998108      -0.32803894      -2.71552589        0       0.10238983       0.05129231      -0.54421071       0.88423169       0.71400082       1.02154016       0.88423169       0.71400082       1.02154016
H       -0.19091525       1.37505481      -2.63054000        0      -0.10740163       0.39434316      -0.51617792      -1.02189052       2.34111118       0.08482251      -1.02189052       2.34111118       0.08482251
12
Properties=species:S:1:pos:R:3:molID:I:1:momenta:R:3:force_mace:R:3:forces:R:3 Nmols=1 Comp=DMC(1) energy_mace=-67.8757553100586 energy=-67.8757553100586 free_energy=-67.8757553100586 stress="0.0 0.0 0.0 0.0 0.0 0.0 0.0 0.0 0.0" pbc="F F F"
C       -0.09781969      -0.11092349       0.01205916        0      -0.11126121      -0.48257301      -0.22603398       0.63469160       1.53560901      -0.68460554       0.63469160       1.53560901      -0.68460554
O       -1.27138532      -0.36075055      -0.16982909        0       0.32164320       1.53248089       0.16052406       0.21366155      -0.53688222       0.37784922       0.21366155      -0.53688222       0.37784922
O        0.66123797      -0.07705448       1.17351075        0      -0.66668822       0.75493367       0.57267595      -1.88070285      -0.89654779      -0.15407991      -1.88070285      -0.89654779      -0.15407991
O        0.73411788       0.42166496      -0.91894042        0       0.63418890      -0.16744942      -0.40807411      -0.03522727      -0.24800506      -0.50411475      -0.03522727      -0.24800506      -0.50411475
C       -0.31428646      -0.36417952       2.29400922        0      -0.58148627      -0.51618249      -0.35084649       1.45808506      -1.47160637       0.07582377       1.45808506      -1.47160637       0.07582377
C        0.29364735       0.47795922      -2.39572312        0       0.77814071      -1.12295657      -1.00485683      -0.22919530      -3.61623907       2.97082162      -0.22919530      -3.61623907       2.97082162
H        0.30833395      -0.11329489       3.18150159        0      -0.26295544       0.04435882       0.02369401      -0.48276240      -0.81299382      -0.22764674      -0.48276240      -0.81299382      -0.22764674
H       -1.09154761       0.33696526       2.24804508        0      -0.06857540      -0.14140362       0.13544716      -1.45705390       1.32075810      -0.04355977      -1.45705390       1.32075810      -0.04355977
H       -0.84359340      -1.40594681       2.24616689        0       0.22070855       0.00638296       0.31617673       1.30213022       1.36389709       0.23475870       1.30213022       1.36389709       0.23475870
H        1.17886399       0.15004784      -2.84940612        0      -0.23773643       0.01776149       0.15762993       1.63023472      -0.00405487      -1.31322098       1.63023472      -0.00405487      -1.31322098
H       -0.43606090      -0.33659951      -2.60837181        0      -0.39522459      -0.24521493       0.46748263      -0.21131468       0.71992767       0.11645739      -0.21131468       0.71992767       0.11645739
H        0.01212481       1.44526414      -2.57098351        0       0.36924619       0.31986240       0.15618069      -0.94254708       2.64613724      -0.84848315      -0.94254708       2.64613724      -0.84848315
12
Properties=species:S:1:pos:R:3:molID:I:1:momenta:R:3:force_mace:R:3:forces:R:3 Nmols=1 Comp=DMC(1) energy_mace=-67.64571380615234 energy=-67.64571380615234 free_energy=-67.64571380615234 stress="0.0 0.0 0.0 0.0 0.0 0.0 0.0 0.0 0.0" pbc="F F F"
C       -0.06679749      -0.05639377      -0.03455123        0       0.55063985       1.25427473      -0.20022549      -1.11761642       0.44773033       0.67977560      -1.11761642       0.44773033       0.67977560
O       -1.27383412      -0.29513219      -0.13855702        0       0.07898574       0.78863393       0.31405093       1.18429899      -0.03211035      -0.18568242       1.18429899      -0.03211035      -0.18568242
O        0.57958474      -0.07502424       1.20366454        0      -1.71166946      -0.12573667       0.11953918       0.20272635       0.06669167      -1.64648485       0.20272635       0.06669167      -1.64648485
O        0.78783933       0.38298378      -0.94496916        0       0.76703773      -0.94793926      -0.38273895       0.76328242      -0.18337938       0.40714109       0.76328242      -0.18337938       0.40714109
C       -0.34578438      -0.36052714       2.25061073        0      -0.66737561       0.41421690      -0.20017167       1.46654689      -3.04507828       2.22620296       1.46654689      -3.04507828       2.22620296
C        0.34627851       0.37700756      -2.38238926        0       1.27710894      -1.12668255       1.21113016       0.17682317      -0.52593100       2.80654407       0.17682317      -0.52593100       2.80654407
H        0.18520317      -0.18818174       3.21803013        0       0.07109429      -0.00407502      -0.11190769       0.25130743       0.31407475      -0.41882065       0.25130743       0.31407475      -0.41882065
H       -1.17447381       0.26887870       2.25841547        0       0.17851256      -0.22085974      -0.22944865      -1.95161891       0.90803385      -0.28915498      -1.95161891       0.90803385      -0.28915498
H       -0.54242244      -1.51146114       2.41782205        0       0.32841805       0.01150826      -0.21406908      -0.17470351       1.71554291      -0.88581890      -0.17470351       1.71554291      -0.88581890
H        1.21106662       0.12946850      -2.94640538        0      -0.54638728      -0.00994497       0.03183481       0.40115479      -1.20654988      -0.91721308       0.40115479      -1.20654988      -0.91721308
H       -0.63486894      -0.01553915      -2.28754672        0      -0.43000748       0.20519881      -0.05391009      -0.85701680      -1.80774367      -0.98101681      -0.85701680      -1.80774367      -0.98101681
H        0.08985289       1.33641002      -2.63295938        0       0.10364278      -0.23859420      -0.28408358      -0.34518427       3.34871912      -0.79547262      -0.34518427       3.34871912      -0.79547262
12
Properties=species:S:1:pos:R:3:molID:I:1:momenta:R:3:force_mace:R:3:forces:R:3 Nmols=1 Comp=DMC(1) energy_mace=-67.302490234375 energy=-67.302490234375 free_energy=-67.302490234375 stress="0.0 0.0 0.0 0.0 0.0 0.0 0.0 0.0 0.0" pbc="F F F"
C       -0.07889093       0.03079456      -0.00632735        0      -0.62090593       0.72287899       0.54930594       1.53253317      -0.02819143      -1.39530611       1.53253317      -0.02819143      -1.39530611
O       -1.23494642      -0.22301847      -0.09484119        0       0.46430275       1.33764302       0.30536417      -3.43566275      -0.29285133      -1.49110591      -3.43566275      -0.29285133      -1.49110591
O        0.48901878      -0.08606490       1.14989741        0      -0.71610738       0.59762120      -1.46400193       2.97506547       1.17286897       0.32825148       2.97506547       1.17286897       0.32825148
O        0.85364844       0.33998484      -0.99128522        0       1.48394102      -0.12007307      -0.22957702       0.10509329      -0.53914332       2.99893117       0.10509329      -0.53914332       2.99893117
C       -0.36733371      -0.35847934       2.28309262        0      -0.65480541       0.23935050       0.18307991       0.86887395      -2.00507307      -1.38168025       0.86887395      -2.00507307      -1.38168025
C        0.36051984       0.31338969      -2.29271904        0       0.11246527      -0.99517068      -0.22116513       1.85724056      -3.47572780      -2.01994133       1.85724056      -3.47572780      -2.01994133
H        0.30659237       0.04401810       3.07289175        0      -0.11188984       0.25194837      -0.01574079      -1.23011351      -0.81056833       0.57963800      -1.23011351      -0.81056833       0.57963800
H       -1.37730966       0.01092995       2.15172028        0       0.17559625      -0.73129609       0.23261112      -0.37418172       0.70709455       0.49236378      -0.37418172       0.70709455       0.49236378
H       -0.51537677      -1.50845237       2.09673931        0      -0.33474310      -0.23415243       0.02678181       0.24729073       1.36364079       1.62338459       0.24729073       1.36364079       1.62338459
H        1.01196744      -0.34330133      -3.02717420        0      -0.43288541      -0.26471523       0.45047219      -0.11060390       1.27819157       1.28308141      -0.11060390       1.27819157       1.28308141
H       -0.52986025      -0.19145095      -2.51508545        0       0.17271163      -0.55550065      -0.16051352      -2.31830168      -0.78640068       0.41706008      -2.31830168      -0.78640068       0.41706008
H        0.29841138       1.27223560      -2.61138317        0       0.46232024      -0.24853366       0.34338309      -0.11723287       3.41615963      -1.43467724      -0.11723287       3.41615963      -1.43467724
12
Properties=species:S:1:pos:R:3:molID:I:1:momenta:R:3:force_mace:R:3:forces:R:3 Nmols=1 Comp=DMC(1) energy_mace=-67.4830093383789 energy=-67.4830093383789 free_energy=-67.4830093383789 stress="0.0 0.0 0.0 0.0 0.0 0.0 0.0 0.0 0.0" pbc="F F F"
C       -0.08263753       0.09113228      -0.05885044        0      -0.14373606       0.12241733      -1.27415735      -0.70741260      -1.15188360       0.47507793      -0.70741260      -1.15188360       0.47507793
O       -1.29493273      -0.15019878      -0.11549222        0      -1.17229871       0.79686639      -0.95728281       1.11516523       0.69836760      -1.19437575       1.11516523       0.69836760      -1.19437575
O        0.52122550      -0.02588898       1.11667571        0       1.69092174       1.05489062       0.84759921      -0.07376927      -0.15363789       2.94796395      -0.07376927      -0.15363789       2.94796395
O        0.93369896       0.34253752      -0.94589264        0       0.25235720       0.10599672       1.21118777      -2.40310621      -0.08333027       0.05947334      -2.40310621      -0.08333027       0.05947334
C       -0.38996228      -0.41516015       2.27226889        0      -1.05932912      -0.33900858       0.51626330      -2.12299585       1.12017024       1.32483888      -2.12299585       1.12017024       1.32483888
C        0.34396820       0.17170015      -2.31631192        0       0.34015430      -1.56816850      -0.60007053       3.93230319      -0.70551813      -0.07770237       3.93230319      -0.70551813      -0.07770237
H       -0.06932062      -0.05645837       3.28707552        0      -0.29642451       0.04083992       0.19872517       0.89469469       0.40276030      -0.98700488       0.89469469       0.40276030      -0.98700488
H       -1.51288893      -0.08822740       2.31646963        0       0.33879126       0.27998861      -0.32935465       1.83327270      -0.02025060      -1.11436677       1.83327270      -0.02025060      -1.11436677
H       -0.49191071      -1.46888127       2.47681111        0       0.43763157      -0.48411566       0.28011783       0.54094517      -0.95460129      -0.87646532       0.54094517      -0.95460129      -0.87646532
H        1.21256376      -0.56365312      -2.72494362        0      -0.03263520       0.22096531       0.13660957      -2.29335690       1.63151228       0.01540712      -2.29335690       1.63151228       0.01540712
H       -0.64446184      -0.26047201      -2.33902834        0      -0.13583903       0.51948423       0.37700506      -0.51730967      -0.20097746      -0.16926974      -0.51730967      -0.20097746      -0.16926974
H        0.42399061       1.19607760      -2.72340331        0      -0.21959333      -0.75015617      -0.40664277      -0.19843012      -0.58261120      -0.40357676      -0.19843012      -0.58261120      -0.40357676
12
Properties=species:S:1:pos:R:3:molID:I:1:momenta:R:3:force_mace:R:3:forces:R:3 Nmols=1 Comp=DMC(1) energy_mace=-66.60733795166016 energy=-66.60733795166016 free_energy=-66.60733795166016 stress="0.0 0.0 0.0 0.0 0.0 0.0 0.0 0.0 0.0" pbc="F F F"
C       -0.08941201       0.06348597      -0.06444581        0       0.16642188      -0.50945212       1.90915704       1.42873847       0.25845647       2.89285254       1.42873847       0.25845647       2.89285254
O       -1.27350252      -0.09150593      -0.19359215        0       1.13401814       0.60871419      -0.93349187      -0.79949504      -0.11242287      -0.41382462      -0.79949504      -0.11242287      -0.41382462
O        0.59600390       0.03270421       1.21405220        0       0.43060278       0.86197850       1.66722245      -1.82223630      -0.57974708      -0.22165966      -1.82223630      -0.57974708      -0.22165966
O        0.87505680       0.35271832      -0.88290752        0      -1.54850410       0.69691160      -0.27306837       0.04502425       0.20891418      -3.75293732       0.04502425       0.20891418      -3.75293732
C       -0.44434728      -0.48395835       2.28529350        0      -0.43870632      -0.20137043      -0.94058204       0.85579145       5.21493053      -3.35052204       0.85579145       5.21493053      -3.35052204
C        0.34631682       0.10126074      -2.31492473        0      -0.32050914      -0.19455655      -0.66037929       3.53291368      -0.08309406      -3.00083303       3.53291368      -0.08309406      -3.00083303
H       -0.07102887       0.04599774       3.14777741        0       0.02220638       0.17710838      -0.08778640      -0.54342282       0.10513335       0.89415777      -0.54342282       0.10513335       0.89415777
H       -1.34861990      -0.03990248       1.70838134        0       0.28947311      -0.42661196      -0.27344927       0.43449497      -1.48005867       2.15874481       0.43449497      -1.48005867       2.15874481
H       -0.18533684      -1.46490985       2.30002140        0       0.09034960      -0.29405973      -0.44619718      -0.25749588      -3.52894020       0.48912144      -0.25749588      -3.52894020       0.48912144
H        1.12036562      -0.65718815      -2.94536060        0      -0.32619744      -0.18085998      -0.12204398      -2.21586013       1.54748571       2.16878963      -2.21586013       1.54748571       2.16878963
H       -0.66866554      -0.11369950      -2.18379722        0       0.28029626      -0.26928449      -0.15552289      -1.49042845      -1.31044888       0.04054120      -1.49042845      -1.31044888       0.04054120
H        0.26193443       0.93358506      -3.15011748        0       0.22054902      -0.26851711       0.31614160       0.83197606      -0.24020754       2.09556961       0.83197606      -0.24020754       2.09556961
12
Properties=species:S:1:pos:R:3:molID:I:1:momenta:R:3:force_mace:R:3:forces:R:3 Nmols=1 Comp=DMC(1) energy_mace=-66.81060791015625 energy=-66.81060791015625 free_energy=-66.81060791015625 stress="0.0 0.0 0.0 0.0 0.0 0.0 0.0 0.0 0.0" pbc="F F F"
C       -0.02591519       0.03870308       0.10912569        0       0.90656177       0.15340123       0.81219651      -2.93589783       0.85983586      -3.87461734      -2.93589783       0.85983586      -3.87461734
O       -1.25885039      -0.09144497      -0.25618963        0       0.51414247      -0.67434727      -1.32730586       2.67213607      -0.32867736       1.95941067       2.67213607      -0.32867736       1.95941067
O        0.57762914       0.09027100       1.28046174        0      -0.55388003       0.79138037       1.39330859      -0.28924596      -0.58706707      -0.64925694      -0.28924596      -0.58706707      -0.64925694
O        0.78450649       0.37520687      -0.93827593        0      -1.50769829       0.13592628      -1.09906702       0.88648546      -0.86371285       1.30105329       0.88648546      -0.86371285       1.30105329
C       -0.38493469      -0.48088389       2.17141828        0       0.27264499      -0.29232962      -1.29870870      -3.94853735       1.89497900       0.08074123      -3.94853735       1.89497900       0.08074123
C        0.37233004       0.07288252      -2.34088957        0       0.47125376      -0.18595002       0.70452421       2.74744844       0.49787116      -0.05202931       2.74744844       0.49787116      -0.05202931