12
Properties=species:S:1:pos:R:3:molID:I:1:momenta:R:3:force_mace:R:3:forces:R:3 Nmols=1 Comp=DMC(1) energy_mace=-588.3013934699882 energy=-588.3013934699882 free_energy=-588.3013934699882 stress="0.0 0.0 0.0 0.0 0.0 0.0 0.0 0.0 0.0" pbc="F F F"
C       -0.06354920       0.02615914       0.03273994        0       1.33991095       0.19878032       0.55671667      -0.28779547      -1.43724053      -2.29568733      -0.28779547      -1.43724053      -2.29568733
O       -1.09745824      -0.56171083      -0.33384407        0      -0.03105084       0.26324437       0.39105043       1.44012566       1.29465948       2.95171564       1.44012566       1.29465948       2.95171564
O        0.59339279       0.04178514       1.16893291        0      -0.06204108      -0.94721010      -0.39894575      -0.86397763       0.26551519       0.61144290      -0.86397763       0.26551519       0.61144290
O        0.70731479       0.58054012      -0.92796504        0      -0.73912539       0.47508673       0.12792315      -0.69355156      -0.56107651      -0.29769993      -0.69355156      -0.56107651      -0.29769993
C       -0.18480919      -0.38314587       2.27627182        0      -0.18153081       0.28776973       0.66355346      -0.74886216       1.39862462       1.53688868      -0.74886216       1.39862462       1.53688868
C        0.11790480       0.31317315      -2.18905210        0      -0.23750489      -0.47990007      -0.65183819      -2.41382531       1.48502088      -1.94374537      -2.41382531       1.48502088      -1.94374537
H        0.50081283      -0.52887988       3.16355896        0      -0.13385754      -0.08858415      -0.04933308      -1.06593462      -0.13317334      -1.55033192      -1.06593462      -0.13317334      -1.55033192
H       -0.99130619       0.37122315       2.57026887        0      -0.24955936       0.12880142      -0.13425716       1.52515701      -0.47685241      -0.24578829       1.52515701      -0.47685241      -0.24578829
H       -0.79898220      -1.19689691       1.93909299        0       0.21666726      -0.03190131      -0.42276003       0.06888981      -1.26572636       0.66706886       0.06888981      -1.26572636       0.66706886
H        0.82173383       0.39293513      -3.04121518        0       0.10046716       0.14335649       0.11337336      -0.26822993      -0.26529971       1.10138403      -0.26822993      -0.26529971       1.10138403
H       -0.51975018      -0.63449883      -2.23208618        0       0.02828386      -0.00910104       0.10390504       1.72859099       1.15577459      -0.65137988       1.72859099       1.15577459      -0.65137988
H       -0.68493521       1.15580308      -2.35394812        0      -0.05065932       0.05965762      -0.29938790       1.57941322      -1.46022590       0.11613260       1.57941322      -1.46022590       0.11613260
12
Properties=species:S:1:pos:R:3:molID:I:1:momenta:R:3:force_mace:R:3:forces:R:3 Nmols=1 Comp=DMC(1) energy_mace=-588.7233175377346 energy=-588.7233175377346 free_energy=-588.7233175377346 stress="0.0 0.0 0.0 0.0 0.0 0.0 0.0 0.0 0.0" pbc="F F F"
C       -0.01528034      -0.02088811      -0.02619229        0       0.12577202      -0.87360519      -1.08044677      -0.28336566      -0.40256564       1.31231676      -0.28336566      -0.40256564       1.31231676
O       -1.07097376      -0.54577485      -0.24525049        0       0.60422867       0.37874898       2.18446216      -0.68015531      -0.39627014       0.28724569      -0.68015531      -0.39627014       0.28724569
O        0.56489922      -0.01339456       1.17011656        0      -0.66317211      -0.75654337      -0.08697966       0.23262928       0.19645009       0.27972603       0.23262928       0.19645009       0.27972603
O        0.68437238       0.60313312      -0.93800960        0      -0.69934815      -0.56629272      -0.74620607      -0.66014922      -0.01955531      -0.85772974      -0.66014922      -0.01955531      -0.85772974
C       -0.24889139      -0.36678818       2.27953663        0      -0.13779474      -0.09200651      -0.44561104       1.78832380       0.69733169       2.48292047       1.78832380       0.69733169       2.48292047
C        0.10461298       0.36472687      -2.24040940        0       0.48217169       1.11997274      -0.46617043       0.80012917       1.94605929      -1.75104121       0.80012917       1.94605929      -1.75104121
H        0.48129512      -0.61758956       3.16416036        0      -0.04759554       0.19359140      -0.05123241      -1.33290726       1.11610550      -1.84887770      -1.33290726       1.11610550      -1.84887770
H       -0.91329676       0.49791293       2.56029238        0      -0.01767030       0.22251521       0.24508003       0.67173418      -1.36509883      -0.24323615       0.67173418      -1.36509883      -0.24323615
H       -0.67521290      -1.33238561       2.16181777        0      -0.17565946      -0.03722972       0.60922352      -1.10341000      -0.47219731      -0.37922084      -1.10341000      -0.47219731      -0.37922084
H        1.00286188       0.53286699      -2.87573773        0       0.12975854       0.03496870       0.00854422      -0.67401183      -0.29281280      -0.23120140      -0.67401183      -0.29281280      -0.23120140
H       -0.23384612      -0.68804899      -2.37641717        0       0.41524990       0.10600430      -0.14212253      -0.03685516       1.19330831       0.03049083      -0.03685516       1.19330831       0.03049083
H       -0.62710639       1.22261303      -2.56403600        0      -0.01594051       0.26987620      -0.02854101       1.27803800      -2.20075486       0.91860727       1.27803800      -2.20075486       0.91860727
12
Properties=species:S:1:pos:R:3:molID:I:1:momenta:R:3:force_mace:R:3:forces:R:3 Nmols=1 Comp=DMC(1) energy_mace=-588.5562145572603 energy=-588.5562145572603 free_energy=-588.5562145572603 stress="0.0 0.0 0.0 0.0 0.0 0.0 0.0 0.0 0.0" pbc="F F F"
C        0.00973772      -0.09829072      -0.05141283        0      -0.03018514      -0.48094473       0.58340813      -1.59812261       1.07837627       0.50697601      -1.59812261       1.07837627       0.50697601
O       -1.10556747      -0.53373543      -0.11367066        0      -2.14107122       0.18641772       1.71798484      -0.56951598      -0.69804716      -1.61087191      -0.56951598      -0.69804716      -1.61087191
O        0.52273948      -0.06837260       1.16750418        0      -0.18780577      -0.79105117       0.43898159       1.46804389      -0.05863873      -0.09214056       1.46804389      -0.05863873      -0.09214056
O        0.65375243       0.58393553      -1.00964714        0       0.29128184      -0.59492109      -1.23207977       0.50756350      -0.05898360       1.97317043       0.50756350      -0.05898360       1.97317043
C       -0.27307155      -0.35488270       2.29502738        0       0.73989627       0.28496000       0.75764516       2.05040512       2.84671882       2.90159217       2.05040512       2.84671882       2.90159217
C        0.22689025       0.46652008      -2.29366073        0       1.89729020       0.25959622      -1.28328538      -3.01746507      -0.92544840      -3.06428514      -3.01746507      -0.92544840      -3.06428514
H        0.60350188      -0.36885570       3.08564934        0      -0.00594773       0.24774952      -0.13080404      -2.29370855      -0.34068298      -1.19497201      -2.29370855      -0.34068298      -1.19497201
H       -0.93057717       0.52853817       2.58607285        0      -0.30162785       0.20741853      -0.01536077       0.94188637      -1.12474148      -0.51717802       0.94188637      -1.12474148      -0.51717802
H       -0.86275977      -1.22700430       2.33127278        0      -0.11233145       0.14081990      -0.31501334      -0.19019439      -1.07275249      -0.40364048      -0.19019439      -1.07275249      -0.40364048
H        1.07327149       0.55447640      -2.96197263        0       0.03881441       0.24610512      -0.16590880       0.31561834       0.37185568      -0.12149142       0.31561834       0.37185568      -0.12149142
H       -0.18883299      -0.57283462      -2.50763656        0      -0.20669559       0.26568615      -0.14075708       0.39072056       1.30745560       0.40766167       0.39072056       1.30745560       0.40766167
H       -0.60839546       1.20342491      -2.64371777        0       0.01838203       0.02816383      -0.21481054       1.99476882      -1.32511154       1.21517927       1.99476882      -1.32511154       1.21517927
12
Properties=species:S:1:pos:R:3:molID:I:1:momenta:R:3:force_mace:R:3:forces:R:3 Nmols=1 Comp=DMC(1) energy_mace=-588.3041807022164 energy=-588.3041807022164 free_energy=-588.3041807022164 stress="0.0 0.0 0.0 0.0 0.0 0.0 0.0 0.0 0.0" pbc="F F F"
C       -0.09274431      -0.09776181      -0.02927398        0      -2.05238993       0.36666122       0.05861467      -0.32188544       0.21802645       0.64940882      -0.32188544       0.21802645       0.64940882
O       -1.22102911      -0.51234683      -0.08354447        0      -0.99251002       0.88769641      -0.30149178       0.75460137       0.28078932      -0.82249428       0.75460137       0.28078932      -0.82249428
O        0.57606908      -0.14572386       1.17077653        0       1.62267131      -0.94674734       0.06542165       0.59937206       0.72251696      -1.08711401       0.59937206       0.72251696      -1.08711401
O        0.62584065       0.53069018      -1.00737194        0      -0.61321784      -1.14177677       1.29404936      -0.06925508      -0.85950556       1.74311326      -0.06925508      -0.85950556       1.74311326
C       -0.21304520      -0.29019773       2.32970476        0       0.89171044       0.37274149      -0.04320380       0.54498629       0.18178993       3.52635189       0.54498629       0.18178993       3.52635189
C        0.34643381       0.49388082      -2.41760844        0       0.69011153       0.26416838      -1.71353272      -2.86262650       2.33070557       1.42297173      -2.86262650       2.33070557       1.42297173
H        0.42506650      -0.43119831       3.36854080        0      -0.45702113      -0.36156620       0.00979995      -1.31997611       0.77374653      -3.30453777      -1.31997611       0.77374653      -3.30453777
H       -0.91901688       0.57742331       2.52453309        0      -0.23466762       0.23040581       0.09165999       1.07380872      -1.19418118      -0.47161744       1.07380872      -1.19418118      -0.47161744
H       -0.69024246      -1.25367376       2.27958484        0       0.33411799      -0.07699370       0.40575552      -0.73463595      -0.25498174       0.08760902      -0.73463595      -0.25498174       0.08760902
H        1.30258577       0.72336811      -2.85408937        0       0.42014126      -0.17068859       0.26262118      -0.05912100      -0.56800800      -0.65720654      -0.05912100      -0.56800800      -0.65720654
H       -0.19664919      -0.46737623      -2.62343567        0       0.17514537       0.23986594      -0.16487655       0.86646127       1.37019139      -0.49439332       0.86646127       1.37019139      -0.49439332
H       -0.33451278       1.48507699      -2.50986293        0       0.21590864       0.33623336       0.03518253       1.52827038      -3.00108967      -0.59209135       1.52827038      -3.00108967      -0.59209135
12
Properties=species:S:1:pos:R:3:molID:I:1:momenta:R:3:force_mace:R:3:forces:R:3 Nmols=1 Comp=DMC(1) energy_mace=-588.1429689973805 energy=-588.1429689973805 free_energy=-588.1429689973805 stress="0.0 0.0 0.0 0.0 0.0 0.0 0.0 0.0 0.0" pbc="F F F"
C       -0.16186491      -0.08523976       0.01014136        0       0.57244615      -0.44785450       0.93507917       0.23369971      -0.66131962       0.13996820       0.23369971      -0.66131962       0.13996820
O       -1.29388965      -0.46693286      -0.13705960        0      -1.03174358       0.98776137      -1.17984687       1.22918898       0.34914864       0.76243560       1.22918898       0.34914864       0.76243560
O        0.64228341      -0.16694196       1.16323966        0      -0.44698071       0.06078197       0.13638520      -2.60518816      -0.03806869      -0.62228801      -2.60518816      -0.03806869      -0.62228801
O        0.57634421       0.44559623      -0.94397072        0      -1.02770237      -0.96565699       0.48130921       0.31711517       0.78129514      -1.54197396       0.31711517       0.78129514      -1.54197396
C       -0.19714060      -0.28533102       2.37128457        0       0.60229948      -1.15174447       0.88730508       2.23840078       0.68265622       0.28334692       2.23840078       0.68265622       0.28334692
C        0.42973870       0.55840937      -2.43739115        0       1.20128417       0.18141125       0.32608650      -2.18712699       0.30712911      -1.51419023      -2.18712699       0.30712911      -1.51419023
H        0.54256095      -0.36485076       3.29028264        0       0.15137342       0.49660150      -0.50613569      -1.91031676       0.56938886      -2.31801073      -1.91031676       0.56938886      -2.31801073
H       -0.87849515       0.60074868       2.34309584        0      -0.12045484       0.31953070      -0.26373439       0.64165658      -0.82376557       0.88705680       0.64165658      -0.82376557       0.88705680
H       -0.73161996      -1.21665830       2.28978336        0      -0.07965577       0.48948682      -0.29954473      -0.40391507      -0.30807051       0.30637546      -0.40391507      -0.30807051       0.30637546
H        1.43709044       0.38425613      -2.77728750        0       0.18217694      -0.37637727      -0.12641990       0.23624125       0.60626768       0.04862782       0.23624125       0.60626768       0.04862782
H       -0.14443078      -0.28628126      -2.98494804        0      -0.00351547       0.23048541      -0.11990971       0.51387988       1.15327164       1.66214113       0.51387988       1.15327164       1.66214113
H       -0.09716863       1.56552635      -2.86883713        0       0.00047258       0.17557420      -0.27057387       1.69636465      -2.61793290       1.90651099       1.69636465      -2.61793290       1.90651099
12
Properties=species:S:1:pos:R:3:molID:I:1:momenta:R:3:force_mace:R:3:forces:R:3 Nmols=1 Comp=DMC(1) energy_mace=-588.2657060146643 energy=-588.2657060146643 free_energy=-588.2657060146643 stress="0.0 0.0 0.0 0.0 0.0 0.0 0.0 0.0 0.0" pbc="F F F"
C       -0.15163410      -0.15599273       0.03677483        0      -0.20138459      -0.56747324      -0.48927614       1.26248046       2.09684684      -1.87434685       1.26248046       2.09684684      -1.87434685
O       -1.28105111      -0.39022340      -0.16133152        0       0.47240244       1.25044880       0.25184600      -2.12292951      -1.37782458       0.52590579      -2.12292951      -1.37782458       0.52590579
O        0.57086637      -0.15851961       1.14326344        0      -1.40740672       0.24946794      -0.60703438      -0.57805870      -0.84094228       0.58021381      -0.57805870      -0.84094228       0.58021381
O        0.56081444       0.44601288      -0.95173760        0       0.49744059       0.32954807       0.23698146       1.63688492       0.16404949       0.13104067       1.63688492       0.16404949       0.13104067
C       -0.19320251      -0.29019009       2.34412963        0      -0.02650049       0.36191972      -0.77560530       0.70641999       1.43067631       2.39630040       0.70641999       1.43067631       2.39630040
C        0.49306266       0.49581460      -2.43416952        0       0.53787076      -1.63432179       0.35507409      -3.33288850       2.43626616       1.93662016      -3.33288850       2.43626616       1.93662016
H        0.60126692      -0.13622349       3.20786920        0      -0.36089043      -0.30299661      -0.09384166      -1.97145059      -0.88256435      -2.10820179      -1.97145059      -0.88256435      -2.10820179
H       -0.88484181       0.59301423       2.47373468        0      -0.34967958       0.14427868       0.37803367       0.68480446      -0.96673093      -0.19519795       0.68480446      -0.96673093      -0.19519795
H       -0.80251987      -1.22098743       2.41603247        0       0.61079857       0.00250318       0.35543181       1.04562707       0.74452852      -0.08067527       1.04562707       0.74452852      -0.08067527
H        1.45184124       0.24766613      -2.76140128        0      -0.01004931      -0.16049553      -0.14676601       1.16158480      -0.28612423      -0.65747123       1.16158480      -0.28612423      -0.65747123
H       -0.30403474      -0.26616572      -2.67864576        0      -0.13677004      -0.05659415       0.33072972       0.91580126       1.30709628      -0.51724914       0.91580126       1.30709628      -0.51724914
H        0.22715133       1.67612905      -2.57847399        0       0.37416879       0.38371490       0.20442673       0.59172433      -3.82527724      -0.13693860       0.59172433      -3.82527724      -0.13693860
12
Properties=species:S:1:pos:R:3:molID:I:1:momenta:R:3:force_mace:R:3:forces:R:3 Nmols=1 Comp=DMC(1) energy_mace=-588.4572165200894 energy=-588.4572165200894 free_energy=-588.4572165200894 stress="0.0 0.0 0.0 0.0 0.0 0.0 0.0 0.0 0.0" pbc="F F F"
C       -0.13280781      -0.09731753      -0.06281566        0      -0.31612401       1.21884172      -0.81475494      -3.40675453      -0.04951224       1.68104276      -3.40675453      -0.04951224       1.68104276
O       -1.32961563      -0.35930134      -0.12838770        0      -0.84011733       0.15509695       0.18289673       2.09335164       0.18426418      -0.77900915       2.09335164       0.18426418      -0.77900915
O        0.49111652      -0.17427855       1.12859181        0      -0.95112910      -0.18800831      -0.28491520       1.27606473       0.34456236      -1.37093595       1.27606473       0.34456236      -1.37093595
O        0.65584274       0.44850503      -0.93040408        0       1.97987252      -0.10010669       0.14974685       0.81657520       0.38293742      -0.76959100       0.81657520       0.38293742      -0.76959100
C       -0.20867649      -0.24097941       2.30760885        0       0.17305398      -0.61726690       0.36199198       2.36202410      -2.73194902       3.10192610       2.36202410      -2.73194902       3.10192610
C        0.52562129       0.39171039      -2.33773570        0       0.22977519      -1.60408775       1.98657577      -3.10573463       4.00066771      -0.99161203      -3.10573463       4.00066771      -0.99161203
H        0.60632212      -0.22179226       3.15679535        0       0.02073305       0.30207350      -0.44052975      -1.64043275       0.66083939      -1.85482914      -1.64043275       0.66083939      -1.85482914
H       -0.94389107       0.49799092       2.47946074        0      -0.25601036       0.34405458      -0.26441553      -0.66303716       0.47607503       0.00832982      -0.66303716       0.47607503       0.00832982
H       -0.48453458      -1.31277613       2.47874756        0       0.13381383       0.37117837      -0.31800607      -0.75455378       0.94659982      -0.08766506      -0.75455378       0.94659982      -0.08766506
H        1.42150990       0.04608478      -2.72813582        0      -0.03183052      -0.32569967       0.17132407       1.26146971      -0.87325448      -0.88108845       1.26146971      -0.87325448      -0.88108845
H       -0.42253220      -0.07568245      -2.68505373        0      -0.20203361       0.09154787      -0.23908610       1.04680832      -0.15544032       0.50165083       1.04680832      -0.15544032       0.50165083
H        0.35790606       1.52760402      -2.74994481        0       0.05999635       0.35237632      -0.49082782       0.71421914      -3.18578983       1.44178127       0.71421914      -3.18578983       1.44178127
12
Properties=species:S:1:pos:R:3:molID:I:1:momenta:R:3:force_mace:R:3:forces:R:3 Nmols=1 Comp=DMC(1) energy_mace=-588.0964824686218 energy=-588.0964824686218 free_energy=-588.0964824686218 stress="0.0 0.0 0.0 0.0 0.0 0.0 0.0 0.0 0.0" pbc="F F F"
C       -0.22285630      -0.01473914      -0.04967705        0      -0.60264506       0.90988762       0.76193873       4.36780969       0.76174486      -0.44397849       4.36780969       0.76174486      -0.44397849
O       -1.33169849      -0.31725249      -0.11428481        0      -0.33597848       0.91137734      -0.48451437      -3.82580866      -0.29855180      -1.86822982      -3.82580866      -0.29855180      -1.86822982
O        0.44809777      -0.19822388       1.05528856        0      -0.35285582      -0.13873517      -1.43812145       1.59571137      -0.28930523       1.33107028       1.59571137      -0.28930523       1.33107028
O        0.75657056       0.46000442      -0.94507830        0       1.04279870       0.68498150       0.53944023      -2.09074726      -0.35365810       2.59956993      -2.09074726      -0.35365810       2.59956993
C       -0.19426865      -0.25674900       2.35815840        0       0.26181880      -0.11150285       0.27581689       1.17661133       0.05012225      -0.96519177       1.17661133       0.05012225      -0.96519177
C        0.53788619       0.30136116      -2.28069852        0       0.64167034      -2.04864114      -0.21266603      -0.75933259       1.74876893      -3.19649044      -0.75933259       1.74876893      -3.19649044
H        0.66402308       0.26413743       2.94452325        0      -0.32574679       0.11495159      -0.04266193      -2.04667673      -1.83520481      -0.02068913      -2.04667673      -1.83520481      -0.02068913
H       -1.05699443       0.35108841       2.32565550        0      -0.49339801      -0.15152549       0.14667082      -0.97677153       1.40191958       0.59200099      -0.97677153       1.40191958       0.59200099
H       -0.69019475      -1.27028361       2.45756224        0       0.04918449       0.23820358       0.40971997       1.73593417       0.73362558       0.90851801       1.73593417       0.73362558       0.90851801
H        1.29361987      -0.35525248      -2.68109665        0      -0.22272687      -0.42093916      -0.10765238       0.80238364      -0.10414824      -0.43898872       0.80238364      -0.10414824      -0.43898872
H       -0.40726214      -0.24638976      -2.56505667        0      -0.11241173      -0.48877493       0.31849842       0.67690878       1.25549943       0.46461118       0.67690878       1.25549943       0.46461118
H        0.65702391       1.38530633      -2.75818312        0       0.45029045       0.50071711      -0.16646890      -0.65602221      -3.07081246       1.03779797      -0.65602221      -3.07081246       1.03779797
12
Properties=species:S:1:pos:R:3:molID:I:1:momenta:R:3:force_mace:R:3:forces:R:3 Nmols=1 Comp=DMC(1) energy_mace=-588.2066857439222 energy=-588.2066857439222 free_energy=-588.2066857439222 stress="0.0 0.0 0.0 0.0 0.0 0.0 0.0 0.0 0.0" pbc="F F F"
C       -0.20223200       0.06577380      -0.05667440        0      -0.18844196       0.20383690      -0.52097619      -1.35481309      -1.60657338       0.53167402      -1.35481309      -1.60657338       0.53167402
O       -1.38761615      -0.25136955      -0.17551633        0       0.09141516       1.14030541      -1.30447157       2.75940566       1.51063858      -0.47566213       2.75940566       1.51063858      -0.47566213
O        0.46402164      -0.21067048       1.04701749        0       1.04026591      -0.25985428       1.49881502      -0.20267383       0.10459529       2.90819155      -0.20267383       0.10459529       2.90819155
O        0.77356194       0.51239434      -0.88897683        0      -0.77909376       0.71572310       0.66199143      -1.66268250      -0.88421116      -1.87524627      -1.66268250      -0.88421116      -1.87524627
C       -0.22557023      -0.24568046       2.34555356        0      -0.38251469       0.06146527       0.82363984       3.01908132      -0.54546418       2.22944143       3.01908132      -0.54546418       2.22944143
C        0.57845639       0.11769379      -2.31461033        0       0.71445802      -2.32016803       0.25785449      -1.22236206       4.35216913       0.80834176      -1.22236206       4.35216913       0.80834176
H        0.38574590       0.19224507       3.26781330        0      -0.22578019       0.14004332      -0.03285857      -0.60887660      -0.12651024      -2.56511472      -0.60887660      -0.12651024      -2.56511472
H       -1.14506758       0.22754680       2.37739191        0      -0.29163369       0.09304496      -0.43471696      -1.65875495       0.89718361      -0.61218156      -1.65875495       0.89718361      -0.61218156
H       -0.25557146      -1.25654505       2.77958544        0       0.66771345      -0.04124617      -0.21450496      -0.18867176      -0.16382815      -1.21816890      -0.18867176      -0.16382815      -1.21816890
H        1.27687710      -0.60024603      -2.64066443        0      -0.00197869      -0.15627292       0.19065254       0.66340174      -0.77083020      -0.06364180       0.66340174      -0.77083020      -0.06364180
H       -0.49358226      -0.18712503      -2.37175627        0      -0.60360648       0.16988250      -0.22795616       0.93204267       0.01262388      -0.90192012       0.93204267       0.01262388      -0.90192012
H        0.74240512       1.15139883      -2.88387690        0      -0.04080306       0.25323994      -0.69746890      -0.47509660      -2.77979318       1.23428673      -0.47509660      -2.77979318       1.23428673
12
Properties=species:S:1:pos:R:3:molID:I:1:momenta:R:3:force_mace:R:3:forces:R:3 Nmols=1 Comp=DMC(1) energy_mace=-588.3389783830683 energy=-588.3389783830683 free_energy=-588.3389783830683 stress="0.0 0.0 0.0 0.0 0.0 0.0 0.0 0.0 0.0" pbc="F F F"
C       -0.17427340       0.03597241      -0.02656844        0       1.55723991      -0.53880834       1.74045303       2.27948311       0.08850185       1.22913865       2.27948311       0.08850185       1.22913865
O       -1.30534091      -0.16658144      -0.26063902        0       1.20354097       0.85875236      -0.91073849      -2.01434858      -0.56299622       0.11554328      -2.01434858      -0.56299622       0.11554328
O        0.51945006      -0.19840618       1.14944188        0       0.75582427       0.84666364       0.73702074      -0.05192381       0.73864555      -2.55286143      -0.05192381       0.73864555      -2.55286143
O        0.67242357       0.53275278      -0.88483999        0      -1.98746407       0.61852321      -1.06229881       0.68549287       0.42680101      -2.58763057       0.68549287       0.42680101      -2.58763057
C       -0.25157391      -0.28263380       2.33281561        0      -0.31183857      -0.85999540      -1.07693903       3.77781135       1.80566551       0.46999165       3.77781135       1.80566551       0.46999165
C        0.53836150       0.06814791      -2.27478305        0      -0.89907366      -0.52166883       0.78761217       0.69393304       1.35898155      -1.32082354       0.69393304       1.35898155      -1.32082354
H        0.23334514       0.54129395       3.00037718        0      -0.26002657       0.18252325      -0.25408578      -1.31524620      -2.17432055      -0.72504382      -1.31524620      -2.17432055      -0.72504382
H       -1.20694442      -0.07081967       2.07370507        0      -0.07895250      -0.46401623       0.04333933      -3.48438303       0.73402061       0.53184678      -3.48438303       0.73402061       0.53184678
H       -0.07388144      -1.30725188       2.52179571        0      -0.25424834       0.00706768       0.12932117      -0.19732948      -1.09411357       1.95482956      -0.19732948      -1.09411357       1.95482956
H        1.23211433      -0.75301929      -2.39373339        0      -0.16169533       0.00828630       0.22668416       0.15068211      -0.17841687      -0.01167416       0.15068211      -0.17841687      -0.01167416
H       -0.45888250      -0.21139913      -2.56287286        0      -0.19973873      -0.48887282      -0.00425158      -0.67262011      -0.36035433       0.55483317      -0.67262011      -0.36035433       0.55483317
H        0.74531513       0.83084250      -3.13793492        0       0.63643262       0.35154518      -0.35611690       0.14844873      -0.78241456       2.34185043       0.14844873      -0.78241456       2.34185043
12
Properties=species:S:1:pos:R:3:molID:I:1:momenta:R:3:force_mace:R:3:forces:R:3 Nmols=1 Comp=DMC(1) energy_mace=-587.9284701768532 energy=-587.9284701768532 free_energy=-587.9284701768532 stress="0.0 0.0 0.0 0.0 0.0 0.0 0.0 0.0 0.0" pbc="F F F"
C       -0.07427054      -0.00270220       0.04742492        0       0.21495906      -0.01266899      -1.23300865      -3.80198268       1.11022183      -3.24805119      -3.80198268       1.11022183      -3.24805119
O       -1.27344151      -0.15875682      -0.28849585        0       0.95074875      -0.68166814      -0.24984780       1.90338852      -0.80613535       2.38928424       1.90338852      -0.80613535       2.38928424
O        0.56215729      -0.13457522       1.15244230        0       0.82422802       0.63465356       1.22292424      -0.48714186      -1.36512194       1.65904028      -0.48714186      -1.36512194       1.65904028
O        0.57489043       0.57627505      -0.95201066        0      -1.35682422       1.08562061      -0.87312435       1.34425089       0.65896866       1.30680857       1.34425089       0.65896866       1.30680857
C       -0.29761086      -0.34781593       2.26994278        0      -1.43891629      -0.52650308       0.25486442       1.95401768       3.65224100       2.33350231       1.95401768       3.65224100       2.33350231
C        0.52676305       0.03770314      -2.24441347        0       0.95150406      -1.28506823       1.34399963       2.11863030       0.07536790       0.85210426       2.11863030       0.07536790       0.85210426