12
Properties=species:S:1:pos:R:3:molID:I:1:momenta:R:3:forces:R:3 Nmols=1 Comp=DMC(1) energy=-589.6990356445312 free_energy=-589.6990356445312 stress="0.0 0.0 0.0 0.0 0.0 0.0 0.0 0.0 0.0" pbc="F F F"
C       -0.06354920       0.02615914       0.03273994        0      -0.50865111      -0.29165939      -0.12246668      -1.29622447      -1.78280699      -2.55630732
O       -1.09745824      -0.56171083      -0.33384407        0       0.58155033      -0.06293477       0.10967849       1.75058389       1.18381286       2.60057521
O        0.59339279       0.04178514       1.16893291        0       0.14239660      -1.28700315       0.09668945      -0.72733742       0.26279685       0.53104478
O        0.70731479       0.58054012      -0.92796504        0      -0.19540735       0.48485828      -1.08037780      -0.42329371      -0.52646220      -0.20420408
C       -0.18480919      -0.38314587       2.27627182        0      -0.65978473       0.03145886       1.94667364      -0.62782156       1.12287271       1.19764829
C        0.11790480       0.31317315      -2.18905210        0      -0.03472053       0.73524761      -0.46316148      -1.67047870       1.55559075      -1.85003519
H        0.50081283      -0.52887988       3.16355896        0       0.30170073       0.08340979       0.05937292      -0.82755715      -0.10801864      -1.29070163
H       -0.99130619       0.37122315       2.57026887        0      -0.18123427       0.24111736      -0.45668080       1.25657570      -0.28514040      -0.24512023
H       -0.79898220      -1.19689691       1.93909299        0       0.26007399       0.10627038       0.14071775       0.19593287      -0.96667612       0.24594349
H        0.82173383       0.39293513      -3.04121518        0      -0.01862687      -0.03278133      -0.18346098      -0.17541194      -0.22374013       0.92149425
H       -0.51975018      -0.63449883      -2.23208618        0       0.09749305      -0.04966188       0.11396478       1.25586748       1.01838923       0.47646499
H       -0.68493521       1.15580308      -2.35394812        0       0.21521016       0.04167824      -0.16094929       1.28916514      -1.25061750       0.17319733
12
Properties=species:S:1:pos:R:3:molID:I:1:momenta:R:3:forces:R:3 Nmols=1 Comp=DMC(1) energy=-589.6922607421875 free_energy=-589.6922607421875 stress="0.0 0.0 0.0 0.0 0.0 0.0 0.0 0.0 0.0" pbc="F F F"
C       -0.04195696      -0.03423167      -0.02759187        0       1.61610323      -0.67877269      -0.11796381       3.05039597       1.41077828       1.00019455
O       -1.05318109      -0.53815657      -0.28193977        0      -0.43130326      -0.24280372       1.09661397      -3.61370254      -1.95560122      -0.07895911
O        0.56966698      -0.02785223       1.16503122        0      -1.42496424      -0.64490810      -0.34213369      -0.48013353       0.09534356       0.67193049
O        0.69310575       0.59799518      -0.96431153        0       0.05419722       0.73312566      -0.71790935       0.13127838       0.52804768      -0.02333170
C       -0.23270296      -0.33426495       2.37082352        0      -0.18719594       0.01889958      -0.39061890       1.97770357      -0.77077860      -0.55034196
C        0.08955729       0.38352365      -2.27159362        0      -0.45979985       0.45624562      -0.91979047       0.18932635      -1.73459244       1.23584831
H        0.57473286      -0.49715442       3.17231576        0       0.16414672       0.05003328       0.38544193      -1.26038301       0.87240833      -0.99361455
H       -0.93697930       0.50123283       2.50892215        0      -0.17007858       0.34187420       0.50344354       0.32858697      -0.66861439       0.31124747
H       -0.65288934      -1.35663686       2.25231054        0       0.20241215       0.28230698       0.54484356      -0.35243872       0.86565876      -0.13113418
H        0.88599800       0.23604778      -3.00984805        0       0.45026795      -0.22093914       0.06854459      -0.44103247       0.73040652       0.14151946
H       -0.30935707      -0.69492066      -2.05871772        0       0.16254739      -0.12564046      -0.10868038      -0.42382815       1.71251953      -1.36331606
H       -0.68050978       1.18532988      -2.43040784        0       0.02366698       0.03057892      -0.00179105       0.89422649      -1.08557594      -0.22004269
12
Properties=species:S:1:pos:R:3:molID:I:1:momenta:R:3:forces:R:3 Nmols=1 Comp=DMC(1) energy=-589.5807495117188 free_energy=-589.5807495117188 stress="0.0 0.0 0.0 0.0 0.0 0.0 0.0 0.0 0.0" pbc="F F F"
C        0.02456103      -0.05897043      -0.06375626        0      -0.79499186       0.07772536      -0.37733091      -3.46459293      -0.75871485       1.48318422
O       -1.09234878      -0.54900593      -0.20837021        0       0.06113163      -0.19429698       1.31852218       1.14575696       0.26102364      -0.65359235
O        0.50860379      -0.08534798       1.18682062        0      -0.38263884      -0.90026532       0.38955497       1.51386976       0.43906149      -0.39314139
O        0.67197273       0.60468561      -1.01081453        0      -0.87367669      -0.87395723      -0.74854499      -0.17396364      -1.16384983      -0.00991321
C       -0.20239344      -0.30557019       2.39494913        0       0.54226594       0.01061819       0.71350261       0.24168640       0.27737874       0.83943641
C        0.13808891       0.38513840      -2.31386571        0       1.35188293       0.60974062      -0.37846577      -1.20695758       1.20011353      -1.34217715
H        0.59889671      -0.16896559       3.12101859        0       0.58023369       0.01378241      -0.00946138       0.52091831      -1.18629575      -0.01277553
H       -0.75538487       0.53730659       2.77666576        0      -0.11388479       0.30982377      -0.11552530      -1.18792140       0.49937251      -0.90929055
H       -0.79080753      -1.24416139       2.51477164        0      -0.15972135       0.26980886      -0.11549177       0.75692767       0.67854148      -0.61057758
H        0.94646955       0.61689422      -2.99800055        0       0.11772099       0.62570955      -0.16895270       0.30511606      -0.52615273       0.03565365
H       -0.40611242      -0.59034976      -2.58814566        0      -0.31955628       0.01772978      -0.46072320       1.12293518       1.17940831       1.08316493
H       -0.59504991       1.22432422      -2.54130571        0      -0.00876585       0.03358110      -0.04708386       0.42622510      -0.89988619       0.49002859
12
Properties=species:S:1:pos:R:3:molID:I:1:momenta:R:3:forces:R:3 Nmols=1 Comp=DMC(1) energy=-589.712646484375 free_energy=-589.712646484375 stress="0.0 0.0 0.0 0.0 0.0 0.0 0.0 0.0 0.0" pbc="F F F"
C       -0.09654452      -0.04375950      -0.05344821        0      -0.96658097       0.78105616       1.36979957       2.08768702       0.09540564       1.58671665
O       -1.13175820      -0.57382776      -0.16600568        0      -2.08138384      -1.31405180      -0.24905569      -2.62731051      -0.86722559      -1.06926310
O        0.51911541      -0.10751419       1.19487306        0       1.02563063      -0.09796543      -0.71774810       1.18565011       1.10263193      -1.60008693
O        0.64076008       0.52002650      -1.03718807        0      -0.49726962      -1.28649274      -0.34711411       0.54454333      -0.44523734       1.50331450
C       -0.14519703      -0.23359922       2.47687333        0       0.27349350       1.08649932       0.25494344      -1.16692746      -2.45844412      -3.28652430
C        0.24065801       0.47455899      -2.40922570        0       0.99631108       1.83546513      -0.67485492      -3.00138974      -0.42256546       1.92290974
H        0.65741232      -0.59438644       3.04978602        0      -0.27339702      -0.76503235       0.11648987       0.56964386       0.33636096       1.23634338
H       -0.69568802       0.65145275       2.60796088        0       0.21789493       0.10808053       0.03603231      -0.27662581       0.99651909       0.97524893
H       -0.86127890      -1.10817974       2.32490612        0       0.23060615       0.15032969       0.03636966       0.39753005       0.94452703       0.54700685
H        1.07339318       0.81089874      -2.92270492        0       0.59564536      -0.05215053       0.00778947       1.22651231       0.37649834      -1.05377424
H       -0.14225548      -0.54487391      -2.67855174        0       0.63530272      -0.50394773       0.02315064       0.51966691       0.84496403       0.10850060
H       -0.61411562       1.20103555      -2.40258086        0      -0.15625343       0.05820978       0.14419770       0.54102015      -0.50343460      -0.87039244
12
Properties=species:S:1:pos:R:3:molID:I:1:momenta:R:3:forces:R:3 Nmols=1 Comp=DMC(1) energy=-589.3236083984375 free_energy=-589.3236083984375 stress="0.0 0.0 0.0 0.0 0.0 0.0 0.0 0.0 0.0" pbc="F F F"
C       -0.18145080      -0.03663028       0.04426052        0      -1.50592610      -0.68909718       0.07787393      -0.35009861      -1.90281940      -2.78941774
O       -1.23966101      -0.61567238      -0.17283287        0      -0.95804337       0.05676940      -0.04192180       1.89912081       1.63662899       1.31475270
O        0.59783425      -0.06068422       1.14348314        0       1.28092911       1.03436954      -0.38704977      -1.78682733       0.61468965       0.99365872
O        0.58785477       0.46320466      -1.01947187        0      -1.28311603      -0.39973088       1.51630853      -0.22621030       0.77677250       1.88258040
C       -0.10822288      -0.21427546       2.45484678        0       0.91376313      -0.16809774      -0.47251594      -0.91440463      -1.39631128      -2.34626389
C        0.33233126       0.51230074      -2.42587374        0       1.16483579      -0.74378219       0.03588149      -2.39549255       0.92306632       1.47973061
H        0.53101691      -0.66170247       3.15333581        0       0.03275498       0.51822062      -0.15850380       1.35628283      -0.67094260       0.49527264
H       -0.39132086       0.72037409       2.91289146        0       0.45262625      -0.27177499       0.18561798      -0.43890861       0.32542479      -0.64436215
H       -0.92760521      -1.00643978       2.26440343        0      -0.14993221       0.37267916      -0.05217886       0.76103199       1.59282947       0.29761314
H        1.18428822       0.84490778      -2.90553748        0       0.05727775       0.58649368       0.12438842       1.64127207       2.06329346      -0.47053289
H        0.42301071      -0.45886948      -2.72936637        0       0.16633810      -0.13553806      -0.28381295      -1.10946608      -2.99954534      -0.97258198
H       -0.62782383       1.07717125      -2.73378857        0      -0.17150778      -0.16051139      -0.54408743       1.56370056      -0.96308607       0.75955069
12
Properties=species:S:1:pos:R:3:molID:I:1:momenta:R:3:forces:R:3 Nmols=1 Comp=DMC(1) energy=-589.4161987304688 free_energy=-589.4161987304688 stress="0.0 0.0 0.0 0.0 0.0 0.0 0.0 0.0 0.0" pbc="F F F"
C       -0.23194342      -0.09754993      -0.03474645        0       0.65503799      -0.94802348      -1.36184482       1.22389698      -0.18499911       1.80276728
O       -1.29517175      -0.60143063      -0.11922668        0      -1.38836073      -0.00984975       1.23104004      -0.40990710      -0.23003507       0.46262690
O        0.60283272       0.04247298       1.12827184        0      -0.95761720       1.46971418      -0.35340322      -1.53880811      -0.83524036      -2.15612531
O        0.51172761       0.44487825      -0.92618645        0      -1.09721687       0.59738015       0.79115940       0.99115098       0.32510412      -2.14569616
C        0.02183682      -0.25242166       2.36751027        0       2.32470874      -0.29569190      -1.05081350      -1.60110021       1.77747178       0.36359027
C        0.39583551       0.44211492      -2.43939916        0       1.01586785      -0.55980274       0.50832245      -3.11211514       1.86425269       3.43149924
H        0.84941279      -0.66998232       2.97051225        0      -0.26202699      -0.07726184      -0.55123456      -1.11908698      -0.15438265      -0.17157027
H       -0.27582667       0.77792879       2.74412350        0       0.04014560      -0.14585756      -0.37046307       0.56756663      -0.90013266       0.40490624
H       -1.03505866      -0.70465703       2.26296962        0       0.02319164      -0.02671668       0.10216912       1.91402674      -0.32385519       0.23488779
H        1.00755729       1.26401097      -2.52205648        0      -0.26433025      -0.04921235       0.72571852       1.90168047       0.98399591      -1.42520773
H        0.48605037      -0.50616394      -2.81486664        0       0.49046887      -0.03624998       0.05552443       0.80537397      -1.78481150      -0.78209770
H       -0.61855177       0.84675747      -2.67165338        0      -0.57986886       0.08157192       0.27382491       0.37732220      -0.53736758      -0.01958115
12
Properties=species:S:1:pos:R:3:molID:I:1:momenta:R:3:forces:R:3 Nmols=1 Comp=DMC(1) energy=-589.4253540039062 free_energy=-589.4253540039062 stress="0.0 0.0 0.0 0.0 0.0 0.0 0.0 0.0 0.0" pbc="F F F"
C       -0.21993393      -0.20477702      -0.04419281        0      -0.35282113      -0.87268732       1.13932551      -0.38239908       1.86065102       0.95887130
O       -1.32797919      -0.63586173      -0.04662965        0       0.39674154      -0.53138392       0.84385725       0.59654129      -0.61685228      -0.26539278
O        0.54930381       0.10875445       1.03838716        0      -0.76873856       0.45069856      -2.69423574       0.69895995      -0.21367353      -0.84273773
O        0.46123376       0.49420979      -0.92514841        0      -0.16778252       0.80813407      -0.85349288       0.98909962       0.03174472      -0.53482699
C        0.12045725      -0.20849100       2.27210440        0       1.12148064       0.35257430      -0.45085053      -1.29218638      -1.43819213       3.77346039
C        0.38885036       0.45671308      -2.30783374        0       0.49155977       0.62211863       1.75774537       1.25865173       1.69110751      -0.59045410
H        0.85682797      -0.86362841       2.84126280        0      -0.16556704       0.30036142      -0.07917213       0.10231137       1.43872333      -0.40567052
H       -0.18987971       0.75004936       2.90054934        0       0.22137964      -0.42510698       0.54359202       0.59828520      -2.06040239      -1.28752351
H       -0.66833163      -1.00657238       2.22315872        0      -0.05763617      -0.38365716       0.08117108      -0.47868639       1.10359144      -0.03396216
H        1.07734650       1.27484042      -2.65211553        0      -0.40510211      -0.32830154      -0.32307626      -1.15215957       0.16135296       0.44487488
H        0.92287894      -0.31768522      -2.76892605        0       0.09926641       0.48139898       0.34274026       0.02119994      -2.03334856      -0.27618259
H       -0.62443974       0.56949303      -2.57420376        0      -0.41278059      -0.47414910      -0.30760415      -0.95961785       0.07529830      -0.94045615
12
Properties=species:S:1:pos:R:3:molID:I:1:momenta:R:3:forces:R:3 Nmols=1 Comp=DMC(1) energy=-589.2487182617188 free_energy=-589.2487182617188 stress="0.0 0.0 0.0 0.0 0.0 0.0 0.0 0.0 0.0" pbc="F F F"
C       -0.26492953      -0.17211040       0.00498915        0      -0.84357784       1.74574976      -0.68226365      -0.31118250       1.39111662      -2.41969848
O       -1.33175069      -0.70311966       0.00573238        0       0.04058254      -1.80393089       0.84130892       0.93059230       0.21934849      -0.49196568
O        0.55392161       0.09749519       0.94603676        0       0.66192951      -0.85509764       0.63306024      -0.05371785      -0.42833239       4.59577751
O        0.46975952       0.55751802      -0.94369358        0       0.21635918       1.61790504       0.96158060      -1.51032174       0.12666821       1.55830896
C        0.13374779      -0.25627947       2.29379495        0       0.84283914      -0.38902044       0.52468501       2.00516415       0.90980065       1.16739058
C        0.39215536       0.49384051      -2.28897016        0       0.57700679      -0.34638853      -1.87656716       1.62427568      -1.42845249      -2.11831522
H        1.13233169      -0.64547478       2.66018966        0      -0.10706247      -0.19545976      -0.49327548      -1.65749276      -0.40202373      -0.02229667
H       -0.06702044       0.55822969       3.04547676        0      -0.07345900       0.26205257      -0.17953710       0.35800678       0.02335292      -1.23202276
H       -0.81149414      -0.76564712       2.29357944        0      -0.63917059       0.11284633       0.06157170       0.22322512      -0.92202890      -0.28036088
H        0.72416980       1.46845504      -2.68607135        0      -0.41415770       0.05954522       0.24789967       0.21722081      -0.73501623       0.09592854
H        1.00018577      -0.43249485      -2.53116295        0      -0.10010756       0.18035962       0.15024474       0.16629258       1.22883523      -0.49703565
H       -0.50830384       0.24260830      -2.75541079        0      -0.16118192      -0.38856134      -0.18870745      -1.99206245       0.01673155      -0.35570985
12
Properties=species:S:1:pos:R:3:molID:I:1:momenta:R:3:forces:R:3 Nmols=1 Comp=DMC(1) energy=-589.1417846679688 free_energy=-589.1417846679688 stress="0.0 0.0 0.0 0.0 0.0 0.0 0.0 0.0 0.0" pbc="F F F"
C       -0.32864972      -0.04066406      -0.05259665        0       0.13045392       1.16919560       0.52295562       2.23067498      -1.76376212       2.49804068
O       -1.26969524      -0.79891365       0.02165331        0       2.02120380      -0.96455122      -0.83330816       1.41847563       2.20003009      -1.22171795
O        0.60148551       0.06984845       1.04967673        0       0.24436480      -0.34962426       1.16636363      -1.01408243      -0.49961826      -1.97310543
O        0.43479072       0.64652766      -0.90282801        0      -1.36713357       1.35708539      -0.34869608      -1.64917076      -0.93223506      -2.98001289
C        0.13576283      -0.27679887       2.32323773        0       0.07876303      -0.18921979       0.65601360       2.01116037      -0.22553521       0.54167801
C        0.36030568       0.42608624      -2.45643799        0      -0.88501339      -0.61694862      -1.24900570       3.38365102       1.26700068       3.61137533
H        0.89036567      -1.00839150       2.84901074        0      -0.46102722      -0.05344427       0.46792364      -1.23446023       1.62382650      -0.88454682
H        0.05214643       0.72695956       2.70997465        0       0.24590987       0.06149581       0.04395051      -0.03931489      -0.12785178       1.44784999
H       -0.79160445      -0.74884353       2.24248465        0      -0.07871010      -0.48302449      -0.15802811      -1.49671996      -0.80599403       0.20635080
H        0.54988123       1.45967560      -2.73656749        0       0.16172795      -0.24367000      -0.41752855       0.02885075      -0.27689588      -0.44824418
H        1.25442603      -0.24233780      -2.68201093        0       0.02597080       0.51128849      -0.21406741      -1.54281557       0.69860220       0.12854339
H       -0.60469783       0.12856479      -2.59721154        0      -0.11650977      -0.19858264       0.36342701      -2.09624982      -1.15756738      -0.92621064
12
Properties=species:S:1:pos:R:3:molID:I:1:momenta:R:3:forces:R:3 Nmols=1 Comp=DMC(1) energy=-589.454833984375 free_energy=-589.454833984375 stress="0.0 0.0 0.0 0.0 0.0 0.0 0.0 0.0 0.0" pbc="F F F"
C       -0.22223794      -0.04214366       0.05537134        0       1.94554823      -0.69694320       1.40838896       0.82323217      -0.74763286      -2.55116224
O       -1.12760359      -0.81238333      -0.05780422        0       2.13913221       0.16884030      -1.75794026      -0.31552184       0.53179699       0.03634070
O        0.59188063       0.03380523       1.08132100        0      -0.06743459      -0.42729852       0.87510485       0.52361095       0.77566767       0.86820048
O        0.32282513       0.72094772      -0.98678369        0      -1.66185239       1.88445122      -1.57639957      -0.32761127      -0.33956596      -0.48290229
C        0.08652931      -0.26793018       2.38210902        0      -0.89374410       0.23755938       0.69595748       3.68179846      -0.76896429       1.37431812
C        0.28017687       0.43129703      -2.44158073        0      -1.41598983       0.32545469       0.70764796       1.72382212      -0.78918028      -0.22686625
H        0.80264432      -0.95142069       3.04166104        0       0.39104452      -0.27417729      -0.11966018      -0.74747729       0.88452441      -1.79477906
H        0.11631726       0.59466682       3.01690380        0      -0.15846857      -0.19808071       0.22809512      -0.65770978       0.78214860      -0.30034646
H       -0.75094365      -0.83513261       2.28178788        0      -0.05406295       0.05508746      -0.04221687      -2.59124899      -0.95727992      -0.10512020
H        0.42047411       1.32519446      -3.10958496        0      -0.44611999      -0.42332526      -0.12190365      -0.60961449      -0.36409694       1.41932774
H        1.17043731      -0.20500858      -2.79146312        0      -0.28185008      -0.42094583       0.27105473      -0.74924642       0.74674475       1.29598188
H       -0.54242054      -0.19325840      -2.74731231        0       0.50379749      -0.23062236      -0.56812859      -0.75403398       0.24583760       0.46700749
12
Properties=species:S:1:pos:R:3:molID:I:1:momenta:R:3:forces:R:3 Nmols=1 Comp=DMC(1) energy=-589.2650756835938 free_energy=-589.2650756835938 stress="0.0 0.0 0.0 0.0 0.0 0.0 0.0 0.0 0.0" pbc="F F F"
C       -0.07532939      -0.11147463       0.01761561        0       0.98283232      -0.38439126      -1.88946567      -0.52729475       2.36277080      -1.33505845
O       -1.03214508      -0.79068452      -0.14179765        0       1.10420644       0.28816553      -1.38661659      -0.42676198      -1.05031824       0.15106227
O        0.60728635       0.03024659       1.14754072        0       0.37726660       0.67127473       1.70676116       0.13807827       1.38314247      -1.32912588
O        0.22346362       0.83603334      -1.05225833        0      -1.75580754       1.68060934      -0.67398938      -0.76337147      -1.23212314       3.16119504
C        0.04092435      -0.31320632       2.42965668        0      -0.75308373      -0.74977345      -0.17751130       2.23871946       0.00029451      -0.90014946
C        0.21725742       0.36965943      -2.37093278        0      -0.69472394      -1.43755321       0.70567381       1.46600878       1.32076752      -0.29365259
H        0.84642271      -1.02620390       2.62635878        0       0.20685290      -0.47143937       0.20377718      -0.43518209       0.07011544       1.72080922
H       -0.11308438       0.54474667       3.09698036        0      -0.15758107      -0.21539051      -0.06049676       0.59165013      -0.26637119      -0.44429207
H       -0.85474092      -0.79868214       2.28958332        0       0.28263431       0.16276636       0.14976980      -2.02457619      -1.05234492      -0.28250718
H        0.14165027       1.40655825      -2.89604143        0       0.21026162       0.07483535       0.52195964       0.77795523      -1.98340142       0.33369821
H        1.16492546      -0.24154069      -2.32347934        0       0.53437079       0.21150551       0.33620312      -0.66105342       0.64342767      -1.50956857
H       -0.56735257      -0.22366833      -2.81713733        0      -0.33722863       0.16939079       0.56393496      -0.37417144      -0.19596002       0.72758955
12
Properties=species:S:1:pos:R:3:molID:I:1:momenta:R:3:forces:R:3 Nmols=1 Comp=DMC(1) energy=-589.193115234375 free_energy=-589.193115234375 stress="0.0 0.0 0.0 0.0 0.0 0.0 0.0 0.0 0.0" pbc="F F F"
C       -0.04232467      -0.04071732      -0.07432656        0      -0.81668727       1.36313665       0.07795733      -1.77212548       0.10846996       2.93205166
O       -0.93686781      -0.83331239      -0.21642937        0       1.93254097      -1.53915822      -0.61160146       0.53988785      -0.93795419       0.57788688
O        0.60624115       0.12686407       1.19539688        0      -0.40743935       2.23482023      -0.21205121      -0.23332077      -0.51592237      -1.94048107
O        0.09515136       0.89484507      -0.98446432        0      -1.35319486       0.67578827       1.83653924       2.43029284      -0.07996106      -0.87562501
C        0.05577005      -0.43604804       2.38004561        0       0.05703703      -1.76924993      -1.16460516      -2.07683945       2.24643159      -0.26122040
C        0.22437728       0.31119560      -2.30262849        0       0.37737443       0.12211665       0.65545423      -0.57564890       2.47786951      -1.04240286
H        0.59966474      -1.07959010       2.95585279        0      -0.14503577      -0.18625444       0.28231381       2.38779116      -1.77890527       0.54598504
H       -0.01175564       0.43621005       3.10119552        0      -0.03008305      -0.31898831      -0.02592767      -0.52556229      -0.64224362      -1.05562258
H       -0.87572288      -1.01528342       2.22755191        0       0.40457318       0.20706457      -0.06573458       0.08996767       0.86001891      -0.40962318
H        0.37657992       1.18837712      -3.00825880        0      -0.16367442      -0.15430600      -0.53326762      -1.34849095      -0.29159957       0.95671147
H        1.15456007      -0.12503336      -2.64089231        0      -0.12190243      -0.53478407      -0.41053677       0.13885278      -1.37695694       1.20539558
H       -0.73450162      -0.21327231      -2.43605277        0       0.26649168      -0.10018568       0.17145979       0.94519579      -0.06924659      -0.63305557
12
Properties=species:S:1:pos:R:3:molID:I:1:momenta:R:3:forces:R:3 Nmols=1 Comp=DMC(1) energy=-589.507568359375 free_energy=-589.507568359375 stress="0.0 0.0 0.0 0.0 0.0 0.0 0.0 0.0 0.0" pbc="F F F"
C       -0.17229994       0.05256694       0.02758552        0      -1.57387826       0.98191186       2.00447513       0.50647926      -1.46905684      -1.32857430
O       -0.83684668      -0.92669363      -0.22758494        0       1.27548101      -1.44376392      -0.20909599      -0.29764831       0.31665111       0.76080692
O        0.54315943       0.23055225       1.13017117        0      -1.63981677       0.97598254      -0.67020059      -0.20968869      -0.60283780       1.52425802
O        0.11793433       0.92788560      -0.95545790        0       1.41964249       0.60190394       0.01949382       0.42152384       0.51809394      -0.11059344
C        0.09103258      -0.55832317       2.32360104        0       0.33268785      -1.40083333      -1.16992466      -3.33730412       3.15897465      -1.68550706
C        0.26903238       0.35760011      -2.26493446        0      -0.04305328      -0.11317317       0.16742548      -3.58124495      -1.09101415      -0.07220462
H        0.70172836      -1.29763851       2.70549434        0       0.12596035       0.03604066      -0.90940887       1.50774539      -1.02652562       0.15838607
H       -0.18000501       0.22614605       3.10215198        0      -0.17429618      -0.20557232      -0.12136601       0.63421071      -0.92878056      -0.84257567
H       -0.90060413      -0.97462758       1.96881013        0       0.46326343       0.12491218       0.03375406       1.03857958      -0.00019577       0.67452061
H        0.12713087       1.09557688      -3.07082653        0      -0.14067585       0.24294852       0.12097765       0.78908426      -0.18605971       0.81663126
H        0.95867279      -0.43002892      -2.27609184        0       0.08074664       0.11392224       0.90947886       2.38513136      -0.10046551      -0.15532008
H       -0.60703958      -0.38535379      -2.45647402        0      -0.12606118       0.08572048      -0.17560898       0.14313173       1.41121590       0.26017219
12
Properties=species:S:1:pos:R:3:molID:I:1:momenta:R:3:forces:R:3 Nmols=1 Comp=DMC(1) energy=-589.3585815429688 free_energy=-589.3585815429688 stress="0.0 0.0 0.0 0.0 0.0 0.0 0.0 0.0 0.0" pbc="F F F"
C       -0.28248088       0.05387339       0.06158798        0      -0.73665528      -0.35719751      -1.03035454       3.39491129       1.18271244      -2.29181433
O       -0.77037762      -0.98755093      -0.23900632        0       0.56994036      -0.76837223      -0.07786806      -1.55295742      -0.46233261       0.35972035
O        0.43953656       0.30617706       1.14478927        0      -1.75729813       2.19038856       0.61811063      -1.51250422       0.72107363      -0.15402412
O        0.16030612       0.96416229      -0.91898346        0      -0.52895620       0.37667572       1.50953953      -2.30577660      -1.02314377       2.10084248
C        0.12667628      -0.59791642       2.14163133        0       0.55568640      -0.20610254      -2.55551572      -2.47360396       0.29771864       2.34894681
C        0.24729638       0.31118538      -2.17645879        0       0.68394628      -1.00888890       1.88690643       1.07058978       2.90555000       0.01038194
H        0.92405329      -1.26946747       2.15294750        0      -0.15426498       0.24112759      -0.24336000       1.02545166      -1.43193686       0.46598357
H        0.05783535      -0.05778239       3.16701920        0       0.52827787      -0.44128293       0.15619914       0.07139309      -0.76323783      -1.72353148