12
Properties=species:S:1:pos:R:3:molID:I:1:momenta:R:3:forces:R:3 Nmols=1 Comp=DMC(1) energy=-589.6853284961794 free_energy=-589.6853284961794 stress="0.0 0.0 0.0 0.0 0.0 0.0 0.0 0.0 0.0" pbc="F F F"
C       -0.06354920       0.02615914       0.03273994        0      -0.29389539       0.10813960      -0.26301901      -1.05208943      -1.71871612      -2.58734395
O       -1.09745824      -0.56171083      -0.33384407        0      -0.25841475       0.44335303       1.00227674       1.84014613       1.41184085       2.82851889
O        0.59339279       0.04178514       1.16893291        0       0.44714278       0.21103045      -0.36478268      -0.86597465       0.41781383       0.48855568
O        0.70731479       0.58054012      -0.92796504        0      -0.77907794      -0.12374806      -0.07116544      -0.34956537      -0.68418756      -0.23146377
C       -0.18480919      -0.38314587       2.27627182        0      -0.93134660      -0.06862675      -0.02538796      -0.55816321       1.03849863       1.28245604
C        0.11790480       0.31317315      -2.18905210        0       1.17180747       0.19049512      -0.47501056      -1.97136637       1.45120424      -1.67826122
H        0.50081283      -0.52887988       3.16355896        0       0.12233795      -0.02461522      -0.24605507      -0.83236201      -0.16178004      -1.21115515
H       -0.99130619       0.37122315       2.57026887        0       0.26506136      -0.04806151       0.30010856       1.19340287      -0.27123097      -0.29284491
H       -0.79898220      -1.19689691       1.93909299        0       0.26853270      -0.37969896      -0.01882176       0.13952995      -1.04181692       0.30314630
H        0.82173383       0.39293513      -3.04121518        0      -0.15446561      -0.11991143       0.19709258      -0.07310844      -0.15827056       0.92188042
H       -0.51975018      -0.63449883      -2.23208618        0       0.16974173      -0.05260107       0.01537598       1.31996904       0.95048900       0.07259619
H       -0.68493521       1.15580308      -2.35394812        0      -0.02742371      -0.13575518      -0.05061139       1.20958149      -1.23384438       0.10391548
12
Properties=species:S:1:pos:R:3:molID:I:1:momenta:R:3:forces:R:3 Nmols=1 Comp=DMC(1) energy=-589.4587939072215 free_energy=-589.4587939072215 stress="0.0 0.0 0.0 0.0 0.0 0.0 0.0 0.0 0.0" pbc="F F F"
C       -0.06166941       0.01296343      -0.03252691        0       0.89480378       0.02035215      -0.34098611       0.96339774       0.00641880       2.18494903
O       -1.10536394      -0.49626457      -0.22156415        0      -0.76722542       1.05221745       1.83337612      -1.94172774      -0.96629418       0.15071468
O        0.58857144       0.06239111       1.17203707        0      -0.99814699       0.58614257      -0.04572018      -1.86790910      -0.18932321      -0.10943459
O        0.66311302       0.55831170      -0.93810585        0      -0.02955951      -0.09060189      -0.69067798       1.34084570       1.19488571      -1.69492351
C       -0.24447948      -0.43593629       2.26909577        0       0.46364187      -1.44782205       0.27891999       3.33149799       1.21731332       2.11342170
C        0.17077668       0.34623500      -2.25972099        0       0.41836922       0.30689112      -1.05314162      -0.44902431      -0.69495985      -1.03757758
H        0.60660496      -0.78235445       2.98508802        0      -0.07680749      -0.19468721       0.02222794      -0.99928898       1.01225901      -0.38993755
H       -0.80525028       0.44412759       2.82542818        0       0.02465899      -0.26310231      -0.07433832       0.58427025      -2.08861454      -1.50111856
H       -0.59679313      -1.41959716       2.06874764        0      -0.02809979       0.08416695       0.01819513      -1.60137772       0.03304391      -0.62418876
H        1.07856417       0.35019910      -2.96423441        0       0.00972930       0.10290898       0.36270858      -1.52346755       0.56761885       0.92860818
H       -0.22067928      -0.71945686      -2.25265568        0       0.23224164      -0.25821189      -0.17045044       0.11989705       1.08314662      -0.38593192
H       -0.73921569       1.05509502      -2.52043100        0      -0.14360561       0.10174613      -0.14011312       2.04288667      -1.17549444       0.36541889
12
Properties=species:S:1:pos:R:3:molID:I:1:momenta:R:3:forces:R:3 Nmols=1 Comp=DMC(1) energy=-589.5464752152575 free_energy=-589.5464752152575 stress="0.0 0.0 0.0 0.0 0.0 0.0 0.0 0.0 0.0" pbc="F F F"
C       -0.03610230       0.00023760      -0.01920095        0      -0.85638636      -0.43074574       0.36313434      -1.84449184       0.32345935       0.04958529
O       -1.15851527      -0.44537146      -0.09445017        0      -0.62716808       0.97331802       1.32631294       0.30791539      -0.15217159      -1.34324298
O        0.51053691       0.08575822       1.16591932        0      -0.98889463       0.41323596       0.56192088       1.44808184      -0.17310032       1.63567911
O        0.68424024       0.57950839      -1.01058990        0       0.42364343      -0.06362946      -1.10941915      -0.72458816      -1.13886215       1.28614429
C       -0.15644543      -0.55406657       2.28266944        0       0.38024117      -1.38486668      -0.12577346      -2.01601623       1.71166804       1.19283979
C        0.21909255       0.32971174      -2.32580392        0       1.46497251      -0.08084428      -0.66820675       0.98471390       2.27928428      -1.24243324
H        0.60646915      -0.84234527       3.09728064        0       0.07011440      -0.04016621       0.11590154      -1.27591995       0.36486761      -1.62372982
H       -1.01018141       0.20728550       2.76388529        0       0.03462168      -0.02730451       0.04243915       2.40130753      -1.04066921      -0.81220161
H       -0.92250499      -1.28652915       1.94879688        0       0.03616923       0.27157717      -0.03511726       1.27128388      -0.33920400      -0.02157511
H        1.17408034       0.61927674      -2.88150661        0       0.07655198       0.35315110      -0.06588969      -1.20130701      -0.64507955       0.08572847
H       -0.07394771      -0.70175588      -2.53093880        0       0.00208705      -0.21120893      -0.33367621      -0.14178829       0.38034175       0.21724303
H       -0.55506355       1.13727283      -2.63852390        0      -0.01595238       0.22748356      -0.07162633       0.79080895      -1.57053419       0.57596278
12
Properties=species:S:1:pos:R:3:molID:I:1:momenta:R:3:forces:R:3 Nmols=1 Comp=DMC(1) energy=-589.7761878783353 free_energy=-589.7761878783353 stress="0.0 0.0 0.0 0.0 0.0 0.0 0.0 0.0 0.0" pbc="F F F"
C       -0.09213482       0.02173639       0.01222147        0      -0.45663517       0.90368806      -0.04342607       0.15814907       0.58226922      -0.52032538
O       -1.19923860      -0.41888983      -0.09006949        0      -1.57513096      -0.22593101      -1.14778334      -0.26666345      -0.27410934      -1.02105964
O        0.48747801       0.10272879       1.22066906        0      -0.12432906       0.25557470       0.96885429       0.78068412       0.03431829      -1.21085322
O        0.67874696       0.54719146      -1.00889335        0       0.02347069      -0.95273286       1.03364927      -0.01876423      -0.96886696       1.18409896
C       -0.17564000      -0.60596351       2.28107402        0      -0.38284290      -0.20990772      -0.18451293       2.33701857      -0.02732612       0.61267849
C        0.33755642       0.36379715      -2.39220930        0       1.58632758       1.02374966      -0.64375612      -1.46426810       1.15697732       0.30571142
H        0.76041272      -1.02867419       2.88607442        0       0.45320968      -0.44273812      -0.18828714      -1.98654677       0.63592628      -0.89779324
H       -0.62610307       0.23093862       2.85900809        0       0.23934233       0.36875959       0.34422710      -0.39019844      -1.27507284      -0.11595004
H       -0.76077146      -1.44837018       1.83876891        0       0.26076944      -0.10693168       0.05022762       0.03202441       0.98727124       0.79950760
H        1.16908967       0.73046261      -3.02402483        0       0.20136142      -0.31119938       0.01898933      -0.42933736      -0.46241744       0.66469926
H       -0.06937788      -0.60007155      -2.66368815        0       0.07943462      -0.26599319      -0.04072988       0.75436852      -0.76510576       0.25845028
H       -0.57378259       0.97266321      -2.58192465        0      -0.30497767      -0.03633806      -0.16745213       0.49353366       0.37613610      -0.05916452
12
Properties=species:S:1:pos:R:3:molID:I:1:momenta:R:3:forces:R:3 Nmols=1 Comp=DMC(1) energy=-589.7345529232953 free_energy=-589.7345529232953 stress="0.0 0.0 0.0 0.0 0.0 0.0 0.0 0.0 0.0" pbc="F F F"
C       -0.19625949       0.07834461       0.00520819        0      -1.92165169       0.34752768       0.24473951       1.62916155      -0.44678199       0.24846111
O       -1.26682592      -0.42255505      -0.14987477        0      -0.15094834       0.44460737      -0.82238145      -0.01431958       0.37751411      -0.25811198
O        0.48585143       0.12611318       1.21197937        0      -0.36287433       0.41343044      -0.82752189      -1.46915187       0.09194718      -0.94781120
O        0.68415597       0.50036254      -0.92313451        0       0.37831484      -0.39067342       0.83048014      -0.85342113       1.00757492      -0.66921562
C       -0.11035518      -0.62566780       2.24906917        0       0.64004898      -0.60044651      -1.17191301      -0.32719908      -2.20616393       0.38350358
C        0.39498491       0.40901139      -2.39219284        0       1.34117668      -0.32470673       1.35348884       2.58398439      -0.61774518       1.61414928
H        0.72585539      -1.23641950       2.67358133        0       0.45767324      -0.45848443       0.15887117      -0.59387707       0.36612387      -0.19568722
H       -0.59351172      -0.11064459       3.08052441        0      -0.26732991      -0.41738730       0.34469654       0.28154901       0.74352543      -0.36795882
H       -0.92596315      -1.36793455       1.89709764        0      -0.32797965       0.47154928      -0.12201905       1.26161047       1.07893905       0.02470486
H        1.40607397       0.55000968      -2.87403535        0       0.00718329       0.20457754       0.22851866      -0.88657757       0.53011103       0.58866674
H        0.30069917      -0.64436616      -2.44940508        0       0.09429726      -0.04752796       0.21593302      -1.18243964      -1.00619149      -0.84981663
H       -0.33757036       1.05020194      -2.83715894        0       0.11208963       0.35753402      -0.43289248      -0.42931948       0.08114699       0.42911590
12
Properties=species:S:1:pos:R:3:molID:I:1:momenta:R:3:forces:R:3 Nmols=1 Comp=DMC(1) energy=-589.825809578055 free_energy=-589.825809578055 stress="0.0 0.0 0.0 0.0 0.0 0.0 0.0 0.0 0.0" pbc="F F F"
C       -0.22505709       0.13269729       0.02835228        0       0.63544264       0.70780917       0.20533282      -0.24261821      -1.70559325      -1.59153805
O       -1.28905802      -0.38335856      -0.23017741        0      -0.60267772       1.28736693      -1.27844430       0.41857284       0.77576457       0.31900165
O        0.41803249       0.14190626       1.16650289        0      -1.88931098       0.40426249      -0.47900090      -0.01460048       0.60744307       1.66482997
O        0.68204014       0.50669672      -0.86978156        0      -0.17097046       0.32669667       1.10123195       0.64547847       0.62081505       0.19299725
C       -0.11337181      -0.71590194       2.20049187        0      -0.90605307      -0.89385271      -0.95998633      -2.74562942       1.41667076      -1.69655513
C        0.53878096       0.35082533      -2.24836155        0       2.11742931      -1.26518924       1.32903523       1.13191197       0.08238183      -0.77451645
H        0.65493917      -1.36690150       2.36616453        0       0.28855368      -0.60390680      -0.42753609       1.54743230      -1.90770162       0.75318433
H       -0.47263830      -0.21724142       3.09981553        0       0.40860569       0.34283810       0.09548307       0.35207534       0.38972437      -0.17582563
H       -1.01542865      -1.13198255       1.67135690        0      -0.04998456      -0.20841740      -0.16023702       0.62873939      -0.38961099       0.91650368
H        1.54338569       0.59755436      -2.70234179        0       0.38908710      -0.38235137       0.10517639      -0.96262270      -0.48123697       0.54872007
H        0.15770870      -0.59816406      -2.58481200        0      -0.13084174       0.16290091      -0.07279419       0.29659061      -0.91860503       0.30662606
H       -0.16602919       1.01422469      -2.65083427        0      -0.08927989       0.12184325       0.54173938      -1.05533010       1.50994821      -0.46342775
12
Properties=species:S:1:pos:R:3:molID:I:1:momenta:R:3:forces:R:3 Nmols=1 Comp=DMC(1) energy=-589.7883428036034 free_energy=-589.7883428036034 stress="0.0 0.0 0.0 0.0 0.0 0.0 0.0 0.0 0.0" pbc="F F F"
C       -0.24384037       0.09945364      -0.03427671        0      -0.20047418      -1.00266755      -0.56838934       3.33338701       1.17049836       1.46752495
O       -1.30583049      -0.27733672      -0.28864655        0      -0.48077511       1.29623551      -0.97110081      -3.09410855      -1.28898893      -1.37666308
O        0.29183273       0.15123157       1.19583352        0      -2.01699168       0.03957735       0.91507859       0.34481307       0.21412260      -0.11179261
O        0.73656159       0.56539685      -0.79890466        0       1.39160140       1.54925839       1.58398686       0.21734512      -0.05908218      -0.25351992
C       -0.13489736      -0.80993044       2.11581520        0       0.21878767      -1.59608167      -1.24832462      -2.28884425       2.22817482       0.20732483
C        0.65817990       0.31581231      -2.18467493        0       0.45409830      -0.23140873       0.24961316       0.11926431      -0.42278210      -0.10136167
H        0.43635341      -1.61763728       2.11371054        0      -0.07901137      -0.25737281      -0.37584933       3.29753263      -3.52094117      -0.19406232
H       -0.03174898      -0.33101552       3.05828092        0       0.10449847      -0.06791744       0.24538688      -0.50072595       0.33933079       0.98964970
H       -1.10031811      -1.24111748       1.89401880        0      -0.36646917       0.25726971       0.37160916      -0.92466635       0.65511536       0.06882174
H        1.69298355       0.33497926      -2.55361628        0       0.03948612       0.05941805      -0.05404788      -0.43562754       0.26859902      -0.02276946
H        0.24006018      -0.68273024      -2.36901137        0       0.39753213       0.05823361       0.45271078      -0.02671429       0.15177198      -0.01901204
H        0.00796302       1.06577265      -2.60213775        0       0.53771744      -0.10454444      -0.60067345      -0.04165520       0.26418144      -0.65414012
12
Properties=species:S:1:pos:R:3:molID:I:1:momenta:R:3:forces:R:3 Nmols=1 Comp=DMC(1) energy=-589.3830649159476 free_energy=-589.3830649159476 stress="0.0 0.0 0.0 0.0 0.0 0.0 0.0 0.0 0.0" pbc="F F F"
C       -0.20432629       0.09142503      -0.02127758        0      -0.09891871       0.06197221       0.58213329      -2.41835235       1.10867650      -0.36792772
O       -1.35906347      -0.18812456      -0.38642717        0       0.77102297       2.00450178      -1.58884176       3.71727035       0.22571464       0.53796079
O        0.18844315       0.13157156       1.26534189        0      -1.78010492      -0.36760453       0.76346898       1.30004545       0.96694339      -1.07647336
O        0.81301151       0.64591506      -0.73905487        0       0.72162736       0.81682982       0.13903894      -1.72676394      -0.66849198      -1.47580411
C       -0.16570063      -0.94730343       2.07576589        0      -0.65331820      -1.74524954      -0.48368700      -2.88257921       2.69983177       0.57770111
C        0.73825465       0.29533896      -2.18753161        0       1.45008103      -0.85541021       0.30130390       1.18087544       0.09620268       1.47069073
H        0.31462046      -1.75457130       1.72002960        0      -0.68013825       0.30348797      -0.29235953       1.27722311      -3.15620005      -0.75740607
H        0.06746050      -0.66945605       3.07014888        0       0.46881552      -0.36998902       0.17297364       0.63772326       0.11706301       0.97752195
H       -1.25673013      -0.93715725       2.02041965        0      -0.06795026       0.11622953      -0.05321923      -0.30242902      -1.00205708       0.06880437
H        1.76850282       0.29517580      -2.49423196        0       0.05122529      -0.01816676       0.19935188       0.77605973      -0.14421903       0.04666096
H        0.39944744      -0.71457008      -2.13908572        0       0.00112127       0.17585528      -0.02966535      -0.60879727      -0.59792660      -0.74492013
H        0.28280734       0.93099851      -2.93383496        0      -0.18346310      -0.12245652       0.28950222      -0.95027554       0.35446274       0.74319147
12
Properties=species:S:1:pos:R:3:molID:I:1:momenta:R:3:forces:R:3 Nmols=1 Comp=DMC(1) energy=-589.6432413243808 free_energy=-589.6432413243808 stress="0.0 0.0 0.0 0.0 0.0 0.0 0.0 0.0 0.0" pbc="F F F"
C       -0.22834243       0.15752661      -0.00710397        0       0.06597248       1.24322330      -0.25161038       2.31800865       1.21060343       0.64077814
O       -1.26456585      -0.09716929      -0.48412127        0       1.45574730       1.07972214      -1.75006637      -2.02260810      -1.08969060      -0.67605200
O        0.11886593       0.12232823       1.30018704        0      -0.53835445       0.29917224       0.45251908       0.12584673      -0.68638384       0.05962187
O        0.81848901       0.65603158      -0.73093943        0      -0.32744533      -0.80453986      -0.10978138       0.46081232      -1.18824533       0.50654216
C       -0.27289319      -1.03626396       2.08037725        0      -1.42484111      -2.09863551      -0.72977445      -0.45326547      -1.50562211      -2.54757346
C        0.84962063       0.27076022      -2.12736558        0       0.58733810      -0.05449044       1.41071505      -0.98350680      -0.03754159       0.62732935
H       -0.06492431      -1.99817611       1.46093245        0      -0.67500484       0.51111838       0.33327169      -0.22417916       1.29135169       0.51167701
H        0.40199871      -1.14547617       2.89720208        0       0.22368221      -0.42739892      -0.04181989      -0.05885305       0.55399643       0.79069558
H       -1.36567641      -1.09803713       2.25317928        0       0.21129818      -0.07509899       0.49426985       0.68417119       0.50141086       0.40453803
H        1.88271706       0.24130916      -2.49944756        0      -0.24876755       0.02282241      -0.15617690      -0.61805163       0.49756933       0.26412500
H        0.35321266      -0.68373613      -2.32949179        0       0.35464604       0.20529161      -0.02539572       0.40525990      -0.45216609       0.55173006
H        0.11663435       0.93456199      -2.54526648        0       0.31572898       0.09881364       0.37384943       0.36636541       0.90471782      -1.13341175
12
Properties=species:S:1:pos:R:3:molID:I:1:momenta:R:3:forces:R:3 Nmols=1 Comp=DMC(1) energy=-589.3509573653179 free_energy=-589.3509573653179 stress="0.0 0.0 0.0 0.0 0.0 0.0 0.0 0.0 0.0" pbc="F F F"
C       -0.20542939       0.25998283      -0.00806043        0      -0.30492614       0.90787966       0.18309628      -0.82487064      -1.70631135       0.99456819
O       -1.21050029      -0.05042162      -0.58136693        0       0.68595539       0.52939238      -1.04489726      -0.92274120      -0.20427596       1.08850640
O        0.12432008       0.10641004       1.33903337        0      -0.23808984      -0.96508028       0.03435520      -1.37552175      -1.28545605      -0.89737282
O        0.83776781       0.59126252      -0.68973102        0       1.43543324      -0.65137737       1.10307320       2.62873621       1.28222883       0.14771655
C       -0.37951476      -1.13791342       2.02937873        0      -1.54079419      -0.77313566      -0.85100024      -1.51452791       1.07728907      -1.14811016
C        0.83922785       0.29482532      -2.05346204        0      -0.14030024       0.71996897      -0.02731402       1.53255232      -0.68574026      -1.47835481
H       -0.54059452      -2.02814553       1.27776980        0      -0.29021572       0.41450972       0.16590331       0.13184254       1.87333699       1.46803587
H        0.39481036      -1.29643120       2.72026277        0       0.02012666      -0.26570772      -0.28551733       1.20874275      -0.66491603       0.55523807
H       -1.28138158      -0.90528486       2.73109644        0       0.16598793       0.23023913      -0.02906118       0.97138613      -0.27772870      -1.82722333
H        1.87551281       0.41037463      -2.49985457        0      -0.11877915       0.11699826       0.49941522      -0.55124490      -0.46649157       1.17673165
H        0.49064153      -0.74145985      -2.21796384        0       0.20488321       0.04503287       0.34106709       0.02867095       0.48644396      -0.03966790
H        0.33556584       0.98233134      -2.69214619        0       0.12071886      -0.30871995      -0.08912027      -1.31302450       0.57162107      -0.04006771
12
Properties=species:S:1:pos:R:3:molID:I:1:momenta:R:3:forces:R:3 Nmols=1 Comp=DMC(1) energy=-589.1810658254226 free_energy=-589.1810658254226 stress="0.0 0.0 0.0 0.0 0.0 0.0 0.0 0.0 0.0" pbc="F F F"
C       -0.21780130       0.24740581       0.04577320        0      -0.09875746      -0.95702808       0.07925676       0.30159309      -1.21996363      -2.82639273
O       -1.19668716      -0.04273865      -0.63048356        0       0.52433443      -0.04710664      -0.14763108       1.10944338       0.57036654       1.88731080
O        0.06517118       0.01439206       1.30596055        0      -1.19144914      -1.34483713      -0.91853457       0.96562654       1.11695368      -0.56990397
O        0.96217371       0.59068407      -0.59290699        0       1.35235695       0.30284941       1.77022620      -1.96578715       0.29542182      -0.22989449
C       -0.48434799      -1.08402200       1.95907761        0      -1.66267895       1.42320713      -1.02063043      -4.00933044       0.23250887      -1.55555486
C        0.90228325       0.34692136      -2.04901374        0       1.55196687       0.64766837       0.26686428       0.38462903      -1.27537017       1.80536907
H       -0.98583340      -1.81247649       1.15286999        0      -0.36498364       0.20850181       0.09881427       1.04168887       1.17835808       1.61684051
H        0.33463021      -1.52616324       2.45782707        0      -0.32117383      -0.25908925      -0.16423239       0.15200127      -0.54252626       0.97538370
H       -1.37689681      -0.57094990       2.50648377        0      -0.10375002       0.04790348      -0.11933346       1.39950912      -1.66440982       0.07767672
H        2.00811282       0.47581862      -2.13911366        0       0.13778941       0.06644709      -0.29697072      -1.15249370       0.10356882      -1.28943702
H        0.59556381      -0.76512748      -2.10144899        0       0.04886147       0.04548528      -0.14942286       0.51403531       1.51106815      -0.44711780
H        0.11833369       0.95166480      -2.58038835        0       0.12748390      -0.13400146       0.60159400       1.25908468      -0.30597609       0.55572008
12
Properties=species:S:1:pos:R:3:molID:I:1:momenta:R:3:forces:R:3 Nmols=1 Comp=DMC(1) energy=-589.210112640483 free_energy=-589.210112640483 stress="0.0 0.0 0.0 0.0 0.0 0.0 0.0 0.0 0.0" pbc="F F F"
C       -0.16800557       0.17476683      -0.03202864        0       1.99404702      -0.89220496      -0.87006670       0.36670381      -0.33674677       0.83010490
O       -1.17173314      -0.02857306      -0.61189810        0      -0.46036872       0.41581617      -0.10181954      -1.41967444      -0.31379792      -0.89979972
O        0.06321035      -0.04248931       1.25086372        0       0.73271732      -0.41458588      -0.19314270       0.11615966      -0.10335517       1.31931134
O        0.97675597       0.56900325      -0.50709021        0       0.07223819      -0.95054363       0.50966663       2.37166429       0.06687135      -2.47644881
C       -0.70351006      -1.00664944       1.88784404        0      -3.55748251       0.19287950      -0.27842195      -3.08733501      -1.43195152       1.06323356
C        1.05885443       0.39062319      -1.94678343        0       1.63060567       1.33526002       1.44373350      -1.38477170       2.22612791      -2.60789420
H       -1.26338929      -1.73084258       1.16014512        0      -0.31083370      -0.00261175      -0.33005956       0.66900079       1.56233091       0.92547318
H       -0.11775154      -1.66719401       2.49827921        0      -0.33191289      -0.01933061       0.05969630       1.00417542      -0.16300064       0.08787754
H       -1.47298448      -0.61714074       2.69612215        0      -0.13450908       0.09588072       0.04868510       1.04861613      -0.06997683      -1.89571358
H        1.93379012       0.68657412      -2.64959186        0      -0.13612923       0.30722369      -0.18622138      -0.50362247       0.04995790       2.41849427
H        0.86865712      -0.62268062      -2.33345006        0       0.19843862      -0.02269997      -0.15618004      -0.44501796       0.18486909       0.87299828
H        0.21062157       1.13358104      -2.33970510        0       0.30318930      -0.04508331       0.05413034       1.26410147      -1.67132832       0.36236324
12
Properties=species:S:1:pos:R:3:molID:I:1:momenta:R:3:forces:R:3 Nmols=1 Comp=DMC(1) energy=-589.3559842647503 free_energy=-589.3559842647503 stress="0.0 0.0 0.0 0.0 0.0 0.0 0.0 0.0 0.0" pbc="F F F"
C       -0.09464666       0.04105641      -0.06059955        0      -0.16202394      -1.76444022       0.58482859      -0.94677847       2.02258060       1.10644461
O       -1.18648729      -0.02749564      -0.59684668        0      -0.17116815      -0.62748796       0.94307567       1.94812442      -0.52113645      -0.11557265
O        0.08479499      -0.05997020       1.26611802        0      -0.50868487      -0.56420303       0.32132971      -1.45468166      -1.76202620       0.60980409
O        1.06038843       0.53295178      -0.51822148        0       2.32863459      -0.00679965      -0.87651592      -0.52761774      -0.44759443      -0.87872868
C       -0.96619194      -0.99459822       1.89857243        0      -1.93008014       0.84229703       0.12774394      -0.29908983       3.19894646      -2.05770136
C        1.14646308       0.49091275      -1.93540631        0       0.41958613       1.24186353      -1.11866692       0.51588092       1.83106034      -1.00934819
H       -1.43249775      -1.31750662       0.91883877        0      -0.35678350       0.24073280      -0.31477495      -0.18888462      -0.39117486       1.57515155
H       -0.32419322      -1.71843818       2.36063064        0      -0.19245507      -0.11866454      -0.02973137      -0.53819282      -0.11711604       0.69606995
H       -1.74277485      -0.27320424       2.46223960        0      -0.45596088       0.50774459      -0.13776125       1.92209266      -1.94203235      -0.74757504
H        2.13023281       1.07551265      -2.24689072        0       0.33994109       0.28669178       0.78005551      -1.87592139      -1.51827809       0.64332757
H        1.07883213      -0.55665395      -2.22300971        0       0.51845586      -0.15358302      -0.09078225       0.51867896       0.11133332      -0.43458015
H        0.26500492       1.02575762      -2.42072560        0       0.17053889       0.11584868      -0.18880076       0.92638956      -0.46456231       0.61270829
12
Properties=species:S:1:pos:R:3:molID:I:1:momenta:R:3:forces:R:3 Nmols=1 Comp=DMC(1) energy=-589.399448936844 free_energy=-589.399448936844 stress="0.0 0.0 0.0 0.0 0.0 0.0 0.0 0.0 0.0" pbc="F F F"
C       -0.09847840       0.02223485       0.02030786        0      -0.03209721       0.84720111       0.47847053       1.60341941       1.43853049      -1.58801109
O       -1.13787606      -0.07243727      -0.55948045        0       1.47274099      -0.83259755       0.29134283       0.36638150      -0.08066949      -0.90193228
O        0.02157704      -0.15881626       1.31852206        0      -1.08641292      -2.11921751       0.60987594       0.41381524      -0.62634674      -0.87360415
O        1.13043646       0.47417260      -0.58803701        0      -0.49176718      -1.49493912      -0.44420475      -3.29328463      -1.78836256       2.20261552
C       -1.09784582      -0.84105829       1.81291501        0      -0.96708027       1.78584953      -1.54788071      -1.64942726       0.00139527       3.00001595
C        1.22508503       0.58491496      -2.00276092        0       1.54145089       1.04073674      -0.41544817       0.53237549       1.68853897       1.17057770
H       -1.86469147      -1.33732710       1.17741160        0      -0.56070954      -0.26055421       0.29772117       0.86538917       0.95535263      -0.28606426
H       -0.77901837      -1.63930299       2.48621957        0      -0.49660852       0.05095328       0.35404966       0.56437549      -0.14441335      -0.06600599