12
Properties=species:S:1:pos:R:3:molID:I:1:momenta:R:3:forces:R:3:charge:R:1 Nmols=1 Comp=DMC(1) energy=-589.6902849309001 free_energy=-589.6902849309001 dipole="0.04765691014858649 0.06870959653949908 0.2117222301694543" pbc="F F F"
C       -0.06354920       0.02615914       0.03273994        0       0.73219471      -1.13257947       1.06926107      -1.10480465      -1.74935772      -2.56668991       0.47127016
O       -1.09745824      -0.56171083      -0.33384407        0       1.58791824       0.59697959       0.36649772       1.82966510       1.39045630       2.85528675      -0.46883014
O        0.59339279       0.04178514       1.16893291        0      -0.91243308      -0.33749519      -0.35369417      -0.82852780       0.42618089       0.49198597      -0.23200909
O        0.70731479       0.58054012      -0.92796504        0      -0.25647314       0.04408249       0.66534400      -0.37199226      -0.70811741      -0.28837154      -0.25090475
C       -0.18480919      -0.38314587       2.27627182        0      -0.11372692       0.59630530      -0.54589564      -0.57910020       1.05533883       1.25905931       0.02408755
C        0.11790480       0.31317315      -2.18905210        0      -0.49529440       0.05661215      -0.92704931      -1.94280044       1.45788527      -1.67289732       0.03147711
H        0.50081283      -0.52887988       3.16355896        0       0.15019432      -0.09754529      -0.15895036      -0.82243213      -0.17215393      -1.20744938       0.08322969
H       -0.99130619       0.37122315       2.57026887        0      -0.34735297      -0.04383979       0.12096235       1.19574539      -0.26180058      -0.29331200       0.05368733
H       -0.79898220      -1.19689691       1.93909299        0      -0.05583021       0.21737884      -0.12312872       0.14298628      -1.04896365       0.29163103       0.08471066
H        0.82173383       0.39293513      -3.04121518        0      -0.10055837      -0.32082397      -0.01132847      -0.07668032      -0.15544425       0.93178879       0.06977969
H       -0.51975018      -0.63449883      -2.23208618        0       0.00717444       0.02128349      -0.15803893       1.35192819       0.97979173       0.12089941       0.08751433
H       -0.68493521       1.15580308      -2.35394812        0      -0.19581261       0.39964186       0.05602046       1.20601285      -1.21381549       0.07806889       0.04598747
12
Properties=species:S:1:pos:R:3:molID:I:1:momenta:R:3:forces:R:3:charge:R:1 Nmols=1 Comp=DMC(1) energy=-589.9008849516682 free_energy=-589.9008849516682 dipole="0.03950298320477312 0.035622116998653135 0.03636413455310892" pbc="F F F"
C       -0.01516943      -0.02275141      -0.00476052        0       1.20499853       0.21427746      -1.32208470       1.62713232       0.68054299       0.64496540       0.50241087
O       -1.02734265      -0.53023145      -0.25568436        0      -0.15372110      -0.46544236       1.53009645      -4.31987194      -2.22066224       0.14418878      -0.46383357
O        0.55098057       0.03058402       1.17781464        0      -0.33918526       0.38063731       0.38493411       1.03307043       0.71785528       0.40019541      -0.26502792
O        0.69260290       0.53796294      -0.92789857        0       0.45718582      -0.67768804      -0.24266117       1.37886413       0.43967637      -1.95037025      -0.28099708
C       -0.24864950      -0.34597065       2.25812626        0      -1.07227310      -0.96341029      -0.11365223       0.47913788      -2.36998215       0.71350652       0.03378186
C        0.08588762       0.36762046      -2.26116158        0       0.23326919       0.41262519      -0.59336994       0.52206774      -0.32099039       0.72407324       0.01245066
H        0.43535417      -0.72359749       3.04800135        0      -0.29982099      -0.19039742       0.04907804      -0.21035212       0.97319936      -0.11515855       0.07099616
H       -0.93236604       0.41856471       2.54773031        0       0.03211735       0.43224775       0.00555160      -0.27378401       0.52130623       0.36969859       0.06839139
H       -0.79359099      -1.28320076       2.03504543        0       0.06174582       0.10673520       0.21078722      -0.32314603       0.44997482      -0.36585225       0.06105688
H        0.96849789       0.22236147      -2.94695497        0       0.10050941       0.12487999       0.16156418      -1.20859703       0.56960161       0.50388793       0.08465503
H       -0.58003380      -0.55561795      -2.23818920        0      -0.08207450      -0.01909226       0.20589801       0.85804273       1.09867268      -0.19409954       0.09175136
H       -0.53955648       1.27759167      -2.32195444        0      -0.14275117       0.64462747      -0.27614157       0.43743591      -0.53919456      -0.87503528       0.08436436
12
Properties=species:S:1:pos:R:3:molID:I:1:momenta:R:3:forces:R:3:charge:R:1 Nmols=1 Comp=DMC(1) energy=-589.7415855453756 free_energy=-589.7415855453756 dipole="0.061061095508866174 0.0962992761518811 -0.09270773523706423" pbc="F F F"
C        0.03202283      -0.07149726      -0.02397809        0      -0.82806101      -1.50229036       0.09038934      -1.74778591       0.13239178       0.95318698       0.48086912
O       -1.07183550      -0.55848253      -0.17369817        0      -0.25288965      -0.38470850       1.77835601       0.78397880       0.07130762      -0.44363677      -0.46890217
O        0.55090663       0.05167672       1.21502165        0       0.31201315       0.37883320       0.59215430       0.43367995      -0.29251593      -0.88912502      -0.27789172
O        0.74197581       0.51278023      -0.96701984        0       0.65925419       0.37981804      -1.09329347      -0.52698654       0.45434249      -1.01235295      -0.24966834
C       -0.31777757      -0.41361595       2.26275913        0      -0.32572077      -0.85230308      -0.40154366       0.94575596      -0.87134529      -0.77177846       0.01704815
C        0.10072513       0.48559700      -2.28943895        0       1.08940093       1.31872258       0.17508738       3.31857745      -3.00732579      -0.02953640       0.01586871
H        0.36292532      -0.63939990       3.09947889        0      -0.00609288      -0.03791847       0.09666429      -0.52801244      -0.48144379      -0.45211439       0.08018626
H       -0.89029016       0.41930358       2.50804339        0      -0.35959114      -0.08409664       0.02615442      -1.26605283       1.43988006       0.75333266       0.07183157
H       -1.01669735      -1.18377326       1.84273316        0      -0.20981972       0.27423431      -0.30447077       0.92596628       0.19624392       0.73881654       0.09043687
H        0.97187596       0.39215648      -3.04429176        0       0.14771177      -0.03088076      -0.30786652      -0.87344469      -0.72637847       1.19055587       0.06566235
H       -0.59153007      -0.36141149      -2.29881180        0      -0.09129153       0.19536327      -0.28000829       0.28410735      -0.00865712      -0.20318882       0.09009956
H       -0.33895474       1.28750684      -2.71902155        0      -0.13491335       0.34522641      -0.37162303      -1.74978336       3.09350052       0.16584077       0.08445964
12
Properties=species:S:1:pos:R:3:molID:I:1:momenta:R:3:forces:R:3:charge:R:1 Nmols=1 Comp=DMC(1) energy=-589.8675575071376 free_energy=-589.8675575071376 dipole="-0.022992430026901243 0.04739118724614865 0.011498939266475758" pbc="F F F"
C        0.01470363      -0.11553806      -0.00842999        0       0.82762831       0.73634618       0.31712734       0.03396725       1.37847281      -0.44828091       0.47160711
O       -1.08643272      -0.59061145      -0.10329493        0      -0.37540220      -1.08584580      -0.04612526       0.49373067       0.14636717      -1.66991795      -0.42579308
O        0.56152429       0.02732915       1.21215572        0       0.28383741      -0.74815056      -0.47772968      -0.51392416      -0.23861731      -0.08097982      -0.24897932
O        0.76435859       0.50453968      -1.04126796        0      -0.33192334      -0.75757245      -0.54861263      -0.67183231      -1.57629497       2.98943840      -0.28079913
C       -0.36803238      -0.41011279       2.24553309        0      -0.95591112       0.52418651       0.17578076      -0.00079263      -2.05093604      -1.04155444       0.01744336
C        0.17594221       0.59823500      -2.30272833        0       0.06900862       1.72778667      -0.13895472       0.14214638      -2.18465559      -0.53029252       0.03378843
H        0.16886719      -0.82472057       3.08595919        0      -0.06699489      -0.36381783      -0.03228523       0.45069970      -0.03304765      -0.05970118       0.07699757
H       -1.01491711       0.34060249       2.59019509        0       0.05843868       0.12090022      -0.10119647      -0.51656725       1.46734301       0.20914718       0.07407826
H       -1.08669754      -1.20847123       1.81787545        0      -0.14893602      -0.39372390       0.10360448       1.27368146       0.85629138       0.58280184       0.08370305
H        0.97626538       0.42443227      -3.06030733        0       0.29204536       0.15919351      -0.24465146      -0.62318170       0.26489171       0.51144429       0.06876648
H       -0.63355277      -0.15578551      -2.42640908        0      -0.01492877       0.03980005       0.14336086       0.51307108       0.10233417       0.03556393       0.06091597
H       -0.28996096       1.52478186      -2.36849927        0       0.36313796       0.04089739       0.84968203      -0.58099847       1.86785131      -0.49766882       0.06827129
12
Properties=species:S:1:pos:R:3:molID:I:1:momenta:R:3:forces:R:3:charge:R:1 Nmols=1 Comp=DMC(1) energy=-589.6907437739438 free_energy=-589.6907437739438 dipole="0.05099977009492805 0.2511666820742717 -0.1052549311312447" pbc="F F F"
C       -0.01881084      -0.07143647      -0.04156318        0      -1.46275014       0.56787539      -0.67379589      -0.13539521      -1.13956031       1.19379143       0.48526075
O       -1.05824911      -0.66015402      -0.14164475        0       0.83341864      -0.80176666      -0.83140359      -0.76592708       0.30018801      -1.40711046      -0.45794993
O        0.54061460      -0.02631699       1.19749929        0      -0.35033218      -0.70645314      -0.20969303       0.06644783       0.66902062      -0.57725719      -0.31059451
O        0.73969883       0.42748065      -0.99091516        0      -0.56733280      -1.59388391       1.82083102       0.94004937       0.32044510       0.65448085      -0.28108699
C       -0.40895181      -0.39535653       2.27033890        0       0.50607946       0.31532048       0.19788578       2.40679456      -1.60197484      -2.04811834       0.00691270
C        0.19903316       0.74101406      -2.30850446        0       0.26829797       1.82070700       1.29619975       0.74282397      -1.33113982       1.74851295       0.01098036
H        0.29298965      -0.75510812       2.98593753        0       0.22305097       0.35082020      -0.05378751       0.29520480       0.21768184       1.19833225       0.08499555
H       -0.88105720       0.51789995       2.47263229        0       0.10714704       0.03374456      -0.24344651      -1.26047417       0.42684006       0.59687089       0.09020566
H       -0.87296385      -1.32320020       1.88622138        0      -0.11785174      -0.11782911      -0.25403463      -0.84901503       0.95349671       0.33902404       0.09776079
H        1.06832624       0.62754955      -2.95796228        0       0.38794027       0.07457977      -0.01567801      -0.35883057       0.06044532      -0.15543794       0.09016214
H       -0.55460263      -0.04094778      -2.42162125        0      -0.02403367       0.20021720      -0.37669409      -0.33379328       0.61271265      -0.71295951       0.09476963
H       -0.07574384       1.76026715      -2.14068650        0       0.19636619      -0.14333177      -0.65638329      -0.74788519       0.51184466      -0.83012896       0.08858385
12
Properties=species:S:1:pos:R:3:molID:I:1:momenta:R:3:forces:R:3:charge:R:1 Nmols=1 Comp=DMC(1) energy=-589.3812451445449 free_energy=-589.3812451445449 dipole="-0.019583702675495113 0.39271758970199194 -0.07309196055790353" pbc="F F F"
C       -0.09073176      -0.10296336      -0.01738065        0      -0.18920619      -1.35554830       1.17891135       0.55884175      -1.45313447       0.07930821       0.49376935
O       -1.06420889      -0.74258486      -0.24356629        0      -1.01509177      -1.25366735      -2.05932377      -1.62492712       0.08092094      -0.22506230      -0.45251580
O        0.51405511      -0.04164944       1.16317300        0      -0.61334499       0.63576180      -1.03146921      -0.09478052       0.65453039       0.43157454      -0.25773619
O        0.73627278       0.37404796      -0.88887671        0       0.37300962      -0.00119343       0.74234825      -0.04817521       2.57811990      -3.28159297      -0.25684458
C       -0.31482810      -0.36267166       2.23566447        0       1.11056183       1.40453963      -0.21866595      -1.39721541       1.31600886       1.39740813       0.02943460
C        0.25458759       0.84036664      -2.23603128        0       0.20611374       1.11670938       0.74124566      -0.56314872       0.96478975       0.15849516       0.02087670
H        0.31850480      -0.51228857       3.10425846        0      -0.28605512      -0.06384512       0.14911922      -0.14743483      -0.55294644      -0.13540065       0.07745226
H       -1.05440868       0.44201403       2.51602442        0       0.17376041      -0.07899365       0.06157215       1.11890904       0.65124352      -0.19428347       0.03710670
H       -1.10937053      -1.04295898       2.00980638        0      -0.36953909      -0.22069981       0.34593966       0.46590088      -1.77155501      -0.28827417       0.07906720
H        1.09123935       0.75286829      -2.87886731        0       0.35463978      -0.07370021      -0.35332381       0.95488138      -0.48081433      -0.40766188       0.08857444
H       -0.60062558       0.36207248      -2.70305709        0       0.04174909       0.25289802      -0.11630899       0.00920166      -1.13949971       0.70139637       0.07892301
H       -0.09027411       1.92142213      -2.44751319        0       0.21340269      -0.36226097       0.55995543       0.76794710      -0.84766338       1.76409302       0.06189231
12
Properties=species:S:1:pos:R:3:molID:I:1:momenta:R:3:forces:R:3:charge:R:1 Nmols=1 Comp=DMC(1) energy=-588.9606594224953 free_energy=-588.9606594224953 dipole="0.06271998784507822 0.1405998756353241 0.2490996651328478" pbc="F F F"
C       -0.10678063      -0.28356846      -0.00083246        0      -0.56233892      -2.33186753      -1.48595469       0.15007988       1.86958575      -3.07377447       0.46725096
O       -1.14776401      -0.80851389      -0.35595081        0      -0.60266447      -0.79934991      -1.02296344       2.26435433       0.80314278       1.36858649      -0.41115729
O        0.48409167       0.01007809       1.14546802        0      -0.16776935       0.60691639       0.45697629      -0.51028910      -1.14071607      -0.67603532      -0.23149363
O        0.75094069       0.42483164      -0.90583325        0       0.05344664       0.52101139      -0.51227791      -0.78531545      -2.24346345       2.64298424      -0.33114003
C       -0.32288794      -0.27466264       2.25448617        0      -0.36238011       1.33474535       0.82596653       0.98107352       2.54162174       1.24477131       0.01745041
C        0.32415686       0.88367152      -2.16232091        0       0.71083288       0.57099153       1.97592485      -0.82536206       1.58781600       2.35218393       0.02280161
H        0.31740183      -0.52089489       3.08077501        0       0.05325343       0.32848768      -0.13855480       0.83154227       0.58510216       0.73926919       0.07245428
H       -0.84183737       0.72269164       2.44168396        0       0.01654685       0.03634253      -0.11397148      -0.20197286      -1.73492765       0.18037909       0.07468730
H       -0.78760423      -1.18568911       2.15234144        0       0.20376827       0.07809118      -0.15512342      -2.28679573      -1.44760074      -0.74186426       0.08495041
H        1.17144193       0.61744666      -2.70636619        0       0.57276872      -0.08703021      -0.20307210       1.11767972       0.33060963      -1.76205720       0.08672963
H       -0.54070827       0.26941684      -2.45464820        0      -0.06064566       0.02108111       0.25225831      -0.15094964       1.01944684      -0.12143600       0.07697485
H        0.26847343       2.04697604      -1.80893648        0       0.14518172      -0.27941951       0.12079187      -0.58404488      -2.17061700      -2.15300699       0.07049150
12
Properties=species:S:1:pos:R:3:molID:I:1:momenta:R:3:forces:R:3:charge:R:1 Nmols=1 Comp=DMC(1) energy=-588.9518468408806 free_energy=-588.9518468408806 dipole="0.08222741026239447 0.2882980434158572 -0.047495222667177046" pbc="F F F"
C       -0.11598651      -0.30201181      -0.14773960        0       0.14074138       1.36220078      -1.62453233      -0.74122213       0.49313686       2.88915100       0.47587457
O       -1.13547166      -0.88702835      -0.40768902        0       0.54118838      -1.53037101      -0.32064613       1.51955978       0.70356942       0.49930633      -0.39987294
O        0.45199047       0.00354406       1.13580936        0      -1.36859449      -0.49030918      -0.49573298      -1.12149634      -0.96349385      -1.05765948      -0.31981803
O        0.72820062       0.37865843      -0.84907746        0       0.42945488      -1.54018630       2.16827646       1.48178276       0.26133258      -0.17132410      -0.18214667
C       -0.30674584      -0.18684513       2.32674741        0       0.32133011       0.61610362       0.81539116      -2.28979728       1.49557024      -2.57491917       0.02430064
C        0.42346532       0.89079023      -2.04108878        0       0.81905843       0.50081551      -0.24898819      -3.81448741       3.76848245      -3.00433046       0.04617686
H        0.37298169      -0.12832799       3.09559234        0      -0.31885954       0.11418270      -0.06036316       1.14429699      -0.60513904       1.68630951       0.09109401
H       -1.02649071       0.69189575       2.42434570        0      -0.21012115      -0.02344989       0.03775733       0.70953104      -0.55546337      -0.01245061       0.04028412
H       -0.96328838      -1.01349817       2.12341040        0      -0.11302443       0.57078237       0.37057133       0.06106015      -0.85461835       0.76751387       0.07380599
H        1.09778658       0.85269029      -2.82199202        0      -0.24560631      -0.06491145      -0.07824782       2.05969111      -1.04322981      -1.09058552       0.07467845
H       -0.55468437       0.58248241      -2.48283396        0       0.06357536       0.23816014      -0.34928467       0.38583993      -0.63512322       0.52395106       0.04931270
H        0.19694087       2.11099896      -2.15801945        0      -0.05914261       0.24698271      -0.21420100       0.60524141      -2.06502391       1.54503756       0.02631030
12
Properties=species:S:1:pos:R:3:molID:I:1:momenta:R:3:forces:R:3:charge:R:1 Nmols=1 Comp=DMC(1) energy=-589.2282798178229 free_energy=-589.2282798178229 dipole="-0.024569941699466472 0.4275284730298154 0.07637929955958168" pbc="F F F"
C       -0.17142011      -0.22784770      -0.11850006        0      -1.00251479       0.75963365       2.00938526       2.41692277      -0.37224792       1.46702269       0.48778902
O       -1.04624968      -0.94496950      -0.45727953        0       1.98116250      -0.64954692      -0.97665726      -0.94028642       0.32792897      -0.24406146      -0.40745844
O        0.35106257      -0.03618429       1.11953109        0      -1.84817572      -1.00575337      -0.23892409      -0.61926476      -0.45322347       0.84733999      -0.27668950
O        0.80611316       0.34707768      -0.82880253        0       1.85622677       0.53366377      -1.32903412      -1.38183414       0.42229126      -1.56103125      -0.31241060
C       -0.33743417      -0.12529654       2.36154246        0      -0.94592420       0.31492440       0.98265528      -1.90472531      -1.45307732       0.25033899       0.03765832
C        0.39138438       0.97032879      -2.14139754        0      -0.13782235      -0.25704166      -1.70026018      -0.08699263      -0.11879401       3.49200615      -0.00197866
H        0.37337499      -0.22201552       3.18335589        0      -0.09121723      -0.29246824      -0.33635003       0.19172347       0.34686604      -0.39620041       0.07945510
H       -0.93230681       0.80061727       2.41453867        0       0.00297797       0.40247259       0.10629667       0.07063595      -0.37071667       0.46937567       0.06178720
H       -1.08371838      -1.05964214       2.55687440        0       0.50518208       0.03713930       0.24211253       1.45646618       1.77703710      -1.08790256       0.04347767
H        1.25223709       0.66018924      -2.65158272        0      -0.28924013       0.07400700       0.50886377       0.83260112       0.47883421      -1.50131674       0.10870389
H       -0.51652822       0.43840966      -2.45239306        0      -0.11479975      -0.38416793       0.20465411       0.15959872       0.68001377      -0.07245192       0.08933108
H        0.32937094       2.04421601      -1.73905453        0       0.08414486       0.46713741       0.52725807      -0.19484495      -1.26491195      -1.66311915       0.09033490
12
Properties=species:S:1:pos:R:3:molID:I:1:momenta:R:3:forces:R:3:charge:R:1 Nmols=1 Comp=DMC(1) energy=-588.7535667842715 free_energy=-588.7535667842715 dipole="-0.1248141964147646 0.5139004058771655 0.4417287345420293" pbc="F F F"
C       -0.18675751      -0.19283521      -0.02811871        0       0.13682860      -0.86116735      -1.19395034       1.26927666      -2.26191785      -4.15933733       0.47123489
O       -0.96329275      -0.97995094      -0.52489111        0       0.97929735       0.12331888      -0.57537618      -0.03924668       1.80361782       0.70959103      -0.40407539
O        0.24024409      -0.11537577       1.15821025        0      -1.00644838      -0.49352484       1.56907796       1.48712022       1.80981931       0.51489306      -0.20396751
O        0.87505926       0.38799329      -0.87824847        0      -0.00924168       0.66857712       0.28021594      -2.25539649       0.29976054       0.65022841      -0.34012511
C       -0.37548515      -0.07793146       2.38582221        0       1.00909982       0.20793402       0.58732917       0.18982581      -3.45850791       1.67518920       0.03660461
C        0.38458575       0.96609082      -2.11964347        0       0.95575523      -0.82929615       0.70125208       1.69838837      -1.08504817       0.16585219       0.02977056
H        0.56397220      -0.00734096       3.03902665        0      -0.11801049       0.54325456      -0.32639716      -1.49222622      -0.59416778      -0.17067856       0.08970781
H       -0.95179016       0.79436469       2.61779738        0      -0.30906074      -0.17643768       0.14717610      -0.71305446       0.22873133      -0.34873890       0.07812513
H       -1.00685633      -1.18165650       2.50852960        0      -0.30656817      -0.06702204      -0.20038377       1.38817282       2.96472147       0.20948784       0.05493468
H        1.21548142       0.93055625      -2.89153579        0      -0.68196124       0.40782361      -0.20043517      -1.03280473      -0.60489803       0.82633374       0.06610545
H       -0.53532379       0.47668344      -2.36960939        0      -0.23237225       0.00208939      -0.26935766      -0.20505569      -0.49992700      -0.61524277       0.07057809
H        0.19437388       1.99560801      -2.00179162        0      -0.41731803       0.47445048      -0.51915097      -0.29499961       1.39781627       0.54242209       0.05110679
12
Properties=species:S:1:pos:R:3:molID:I:1:momenta:R:3:forces:R:3:charge:R:1 Nmols=1 Comp=DMC(1) energy=-589.3904162195657 free_energy=-589.3904162195657 dipole="0.010207424383097682 0.4271359989171777 0.16444384335736106" pbc="F F F"
C       -0.07842439      -0.27420713      -0.14543311        0       2.24852765      -0.50822080      -0.94667159      -0.36338796       0.04823998       1.55913348       0.49081415
O       -0.97068194      -0.94168277      -0.56278143        0      -0.65115325       0.37636194      -0.95162492      -0.27596671       0.06270344      -0.38907062      -0.41298920
O        0.22807527      -0.12953821       1.17054286        0       0.41946436      -0.22472603      -0.93169166       1.87764273       0.66189632      -0.49748043      -0.29004423
O        0.81927134       0.44085951      -0.85552608        0      -1.33605015       1.17943294       0.40522320       0.18946932      -0.67831943       0.99221278      -0.26520771
C       -0.35027369      -0.07539746       2.45741648        0      -0.26161613       0.70980966       1.09459656      -1.71563122      -1.19732307       0.34617712       0.05171204
C        0.37795999       0.94216094      -2.08996996        0      -0.45870737       0.28635058      -0.51334083       1.54139419      -2.69593955      -1.34529356       0.02627837
H        0.41686875       0.20351330       3.20911735        0      -0.23557262      -0.04152966       0.26064532      -0.21574525      -0.23843248      -0.80078620       0.07925285
H       -1.15976307       0.67402845       2.48271615        0       0.07609032      -0.14227540      -0.32932996       0.25164602      -0.05907324      -0.06102645       0.05808653
H       -0.85520089      -1.05967220       2.79752459        0       0.10881111      -0.70557196       0.70751362       0.84761667       1.07971947      -0.63209233       0.05077176
H        1.09311310       0.79974028      -2.94082745        0       0.08936952      -0.47343827       0.47534256      -0.01480111       0.15599594       1.04147150       0.06567356
H       -0.48967892       0.44597729      -2.40263653        0      -0.16430376      -0.36805345       0.17775431      -1.54316685      -1.01721782      -0.41595541       0.06959046
H        0.14517074       1.90055815      -1.92207520        0       0.16514033      -0.08813954       0.55158340      -0.57906982       3.87775046       0.20271011       0.07606142
12
Properties=species:S:1:pos:R:3:molID:I:1:momenta:R:3:forces:R:3:charge:R:1 Nmols=1 Comp=DMC(1) energy=-589.1674234736082 free_energy=-589.1674234736082 dipole="0.06310917146568672 0.316081690923426 0.2536554804397995" pbc="F F F"
C       -0.04389598      -0.34689059      -0.15278519        0      -0.94804926      -0.85863105       1.01358495      -0.62930960       1.79083120       1.97319496       0.49811412
O       -0.98360581      -0.89853174      -0.59641019        0       0.09627778       0.32123487      -0.62990419      -1.22191954      -1.38242783      -0.36827131      -0.42889944
O        0.28708077      -0.12070301       1.13548884        0       1.51287269       0.53849551      -0.22634247       0.52330705      -0.55897980       1.49107898      -0.33208994
O        0.75578899       0.46032210      -0.82434045        0      -0.55336996      -0.55632745       0.66899285       1.14327538      -0.05838343       0.96343709      -0.27192022
C       -0.39688897      -0.10313232       2.50389191        0      -0.18626425       0.16650228      -0.40968640       1.25009068       3.16877227      -3.23457495       0.01824743
C        0.35790050       0.92930530      -2.07984153        0       0.54436547       0.46689909       0.72537451       3.27238814      -0.32846108      -0.38870783       0.02402199
H        0.42181124       0.35208408       3.09419912        0       0.09257110       0.57325676      -0.43106188      -0.51558840       0.27914499      -0.33347734       0.09005876
H       -1.23580069       0.61746202       2.29603458        0      -0.01256566      -0.13511621       0.11001657       0.53487833      -1.02809604       0.85526002       0.08528904
H       -0.55926021      -0.99487296       2.97317155        0      -0.16834246      -0.65300933       0.14082694      -1.03362370      -2.39225955       0.30716841       0.09005796
H        1.30822895       0.76190729      -2.67667249        0      -0.13339619       0.39474939       0.06642258      -1.22762523       0.21928712      -0.10819145       0.06626708
H       -0.45426322       0.38072983      -2.41007678        0      -0.14985835       0.12827629      -0.31941747      -1.58477710      -0.80456525      -0.97541628       0.08520377
H        0.22121112       1.97156537      -1.96200997        0      -0.09424089      -0.38633014      -0.70880600      -0.51109602       1.09513739      -0.18150030       0.07564946
12
Properties=species:S:1:pos:R:3:molID:I:1:momenta:R:3:forces:R:3:charge:R:1 Nmols=1 Comp=DMC(1) energy=-588.735950922512 free_energy=-588.735950922512 dipole="-0.0808327549229829 0.33233753537605465 0.3032792343830996" pbc="F F F"
C       -0.13539635      -0.33643941      -0.04306158        0      -1.25416642       0.52075538       0.55536703       0.28171917       0.82803981      -2.55596204       0.46999967
O       -1.02729788      -0.95195825      -0.60927453        0      -0.21880668      -1.21208801       0.60580154       1.57947921       1.17920783       2.57479853      -0.39659022
O        0.36921756      -0.11521749       1.19184177        0       0.90375444       0.18798986       1.49616267      -1.50451809      -0.46637488      -1.34767566      -0.25206246