12
Properties=species:S:1:pos:R:3:molID:I:1:momenta:R:3:forces:R:3:charge:R:1 Nmols=1 Comp=DMC(1) energy=-589.6902849308997 free_energy=-589.6902849308997 dipole="0.047656910148580964 0.06870959653949521 0.21172223016946673" pbc="F F F"
C       -0.06354920       0.02615914       0.03273994        0       0.30710417       0.28767164      -0.63218915      -1.10480465      -1.74935772      -2.56668991       0.47127016
O       -1.09745824      -0.56171083      -0.33384407        0      -0.43578003       0.43914740       0.70213232       1.82966510       1.39045630       2.85528675      -0.46883014
O        0.59339279       0.04178514       1.16893291        0       0.01869739       1.04375892      -0.40802216      -0.82852780       0.42618089       0.49198597      -0.23200909
O        0.70731479       0.58054012      -0.92796504        0       0.36122937      -0.64237504       0.99696287      -0.37199226      -0.70811741      -0.28837154      -0.25090475
C       -0.18480919      -0.38314587       2.27627182        0      -0.47640269      -0.58227274      -1.15664651      -0.57910020       1.05533883       1.25905931       0.02408755
C        0.11790480       0.31317315      -2.18905210        0      -0.45601571      -0.08938921       0.00335529      -1.94280044       1.45788527      -1.67289732       0.03147711
H        0.50081283      -0.52887988       3.16355896        0       0.10062052      -0.00373386       0.06675805      -0.82243213      -0.17215393      -1.20744938       0.08322969
H       -0.99130619       0.37122315       2.57026887        0       0.04767807      -0.10942298       0.00354136       1.19574539      -0.26180058      -0.29331200       0.05368733
H       -0.79898220      -1.19689691       1.93909299        0       0.20860634      -0.16619957       0.07130527       0.14298628      -1.04896365       0.29163103       0.08471066
H        0.82173383       0.39293513      -3.04121518        0       0.03689063       0.10941888       0.06781088      -0.07668032      -0.15544425       0.93178879       0.06977969
H       -0.51975018      -0.63449883      -2.23208618        0       0.16073672      -0.06507153       0.31493563       1.35192819       0.97979173       0.12089941       0.08751433
H       -0.68493521       1.15580308      -2.35394812        0       0.12663523      -0.22153193      -0.02994387       1.20601285      -1.21381549       0.07806889       0.04598747
12
Properties=species:S:1:pos:R:3:molID:I:1:momenta:R:3:forces:R:3:charge:R:1 Nmols=1 Comp=DMC(1) energy=-589.770331126763 free_energy=-589.770331126763 dipole="0.11600392849119433 -0.01411316919237044 -0.049236448020758085" pbc="F F F"
C       -0.06240538      -0.01764938      -0.04698762        0      -0.27171707      -1.27504763      -0.24663216       1.17239527       0.69961119       2.71147205       0.49011315
O       -1.11820691      -0.50753520      -0.21798431        0      -0.23332793       1.11571714       1.90824415      -1.57633050      -0.97181334       0.00665909      -0.43717265
O        0.56265853       0.10263381       1.16177355        0      -0.47184281       0.64941544      -0.02674437      -0.24047271      -0.57472933      -1.28608996      -0.28706317
O        0.69588679       0.54196602      -0.91966012        0      -0.27581383      -0.37800650      -0.79849596       1.03666795       0.72142458      -1.18185013      -0.23629173
C       -0.20144177      -0.43936701       2.19661967        0      -0.03066698      -1.14888710      -0.74516940       0.63700266       1.66223267       2.28792750       0.03529330
C        0.14444718       0.34293989      -2.18635502        0       0.78288145       0.69131557       0.33393457      -0.48776491      -0.05282910      -2.02151306       0.03164478
H        0.52383436      -0.55217001       3.03571591        0       0.16806475       0.11244604      -0.01585715      -0.36243866       0.23033526      -0.25616097       0.06295625
H       -0.91014966       0.41344680       2.48585040        0      -0.27634689      -0.01157290      -0.03267846       0.16905896      -1.75200218      -0.16193609       0.06014755
H       -0.55726566      -1.43885404       2.02698817        0       0.31923397       0.11567119       0.03663431      -0.80990861       0.03514196      -0.46484384       0.07260530
H        0.96972515       0.38938917      -2.95238011        0       0.20081098      -0.10865469      -0.03972725      -0.79479511       0.20803400       0.75337860       0.07072266
H       -0.24070076      -0.74486015      -2.15893089        0       0.07646110       0.12185975      -0.28693508      -0.08944508       1.75881378      -0.66660198       0.07388780
H       -0.66428161       1.18581513      -2.40506548        0       0.01226326       0.11574370      -0.08657319       1.34603074      -1.96421948       0.27955879       0.06315675
12
Properties=species:S:1:pos:R:3:molID:I:1:momenta:R:3:forces:R:3:charge:R:1 Nmols=1 Comp=DMC(1) energy=-589.6210319617862 free_energy=-589.6210319617862 dipole="0.1791658522404126 -0.0739220099839929 0.1230924728004052" pbc="F F F"
C       -0.02377857      -0.06662919       0.01510306        0      -0.03173147       0.03876694       0.77767505      -3.25168553       0.90817809      -3.01352592       0.48260610
O       -1.17011888      -0.46838964      -0.12315889        0      -1.00832401       0.37919905       0.90944529       1.53046809      -0.17588592      -0.34999490      -0.48044408
O        0.54229484       0.13637637       1.11247502        0       0.01286032       0.47559051      -1.06363541       0.79336736      -0.45634288       3.56677744      -0.21649250
O        0.71134221       0.50645502      -0.95645417        0       1.09118244      -0.29531596       0.18871227      -0.10369816      -0.33935081       0.44296448      -0.24976737
C       -0.17263546      -0.46754545       2.19572458        0       0.33882760      -0.75624885       0.35347694      -2.56164688      -1.08664161      -0.40770835       0.01867598
C        0.19362593       0.39363403      -2.21512632        0      -0.09660701      -0.29593296      -1.19115830      -1.62408080      -0.46573310      -3.50238409       0.04856945
H        0.48760489      -0.35041978       3.01024374        0      -0.20340724      -0.02791548       0.39190439       0.28481017      -0.29170853       0.97182282       0.09453244
H       -1.24555272      -0.09751034       2.40765185        0      -0.41213342      -0.43190548      -0.06109796       1.69772564       0.75547902      -0.35247592       0.07308289
H       -0.55083791      -1.52194696       1.93772407        0       0.37786798       0.26906647       0.20701381       1.52713342       0.83790053       0.27490926       0.07326380
H        1.02014712       0.50101804      -2.95227908        0       0.36129070       0.28633829      -0.25895039      -0.39212454       0.01038431       0.56169700       0.06159058
H       -0.32925855      -0.58714939      -2.44568154        0      -0.20166622       0.08366937      -0.12421620       0.83849306       0.48782402       0.66238401       0.04957372
H       -0.65248414       1.09618666      -2.56602533        0      -0.22815968       0.27468810      -0.12916950       1.26123817      -0.18410312       1.14553417       0.04480901
12
Properties=species:S:1:pos:R:3:molID:I:1:momenta:R:3:forces:R:3:charge:R:1 Nmols=1 Comp=DMC(1) energy=-589.6866920560147 free_energy=-589.6866920560147 dipole="0.05841451916239038 0.024890520650318264 -0.2015755737310117" pbc="F F F"
C       -0.11815287      -0.00192888      -0.03312186        0      -0.62682347       1.70306571      -1.07038477       2.44761047       0.88944199       1.74495277       0.48518094
O       -1.20231302      -0.46259414      -0.08165201        0      -0.70133693      -0.41269127       0.18070625      -0.91383616      -0.31634119      -1.06817444      -0.42116555
O        0.56864728       0.13889622       1.15934560        0       0.16416895      -0.28551899       1.38752977      -1.06601484      -0.16397980      -0.06214460      -0.29669794
O        0.72507302       0.46753331      -0.93723850        0      -0.79079565      -1.22848299       0.59223332      -1.12275727      -0.64522904      -1.69513725      -0.28392024
C       -0.15880246      -0.50988001       2.21696476        0       0.72607788      -1.21772306       0.39311203       1.71779165      -2.92037737      -1.92714322       0.03027815
C        0.19502974       0.41012822      -2.35934182        0       0.39659779       0.24362066      -1.26200658      -0.06483717      -0.63154766       3.12648061       0.00120333
H        0.26724739      -0.30421376       3.15042879        0      -0.13070440       0.29693705      -0.04493200       0.75306939       0.54576276       1.05142851       0.07834453
H       -1.17924383      -0.22795828       2.16933326        0      -0.13307595       0.28489802      -0.38757821      -0.91584607      -0.19852667      -0.03038332       0.08211772
H        0.07259057      -1.69506353       1.97765891        0       0.52787666       0.23241676       0.18701141      -1.17809549       2.38176227       0.84903491       0.04251216
H        1.06758231       0.59362300      -2.91375775        0       0.37905308       0.00886588      -0.15982778       0.88587578      -0.27730950      -0.94740009       0.10021475
H       -0.30541720      -0.59654735      -2.44134893        0       0.08252169      -0.22530143      -0.03777989       0.38827863       1.33640720      -0.36107246       0.09183413
H       -0.40343443       1.29934328      -2.34452300        0       0.10644035       0.59991365       0.22191647      -0.93123892      -0.00006298      -0.68044143       0.09009803
12
Properties=species:S:1:pos:R:3:molID:I:1:momenta:R:3:forces:R:3:charge:R:1 Nmols=1 Comp=DMC(1) energy=-589.531136743738 free_energy=-589.531136743738 dipole="0.15224073873596403 0.18666292248821575 -0.2509499257501853" pbc="F F F"
C       -0.14704964       0.11818421      -0.01167932        0      -0.55510628       0.63289512       1.24774983      -1.55822004      -3.82256832       1.45396379       0.46937874
O       -1.22726619      -0.47946565      -0.09937868        0       0.49978415       0.38732531      -0.77759243       1.80673027       2.12707611      -0.16936942      -0.45645144
O        0.54573257       0.12760955       1.20258759        0      -0.97705603      -0.18659892      -0.29269918      -0.37803950       0.41466692      -2.18839250      -0.28381441
O        0.67755901       0.38356418      -0.96792416        0      -0.86559703      -1.12329401      -1.76338801       0.81028296       1.48837245      -1.27594840      -0.21735945
C       -0.10340870      -0.55574551       2.23406298        0       0.86854863       0.01715983       0.54695834       1.10258085      -1.98959594       0.22056239       0.03220458
C        0.27798700       0.48184605      -2.34468309        0       1.39813428       0.79826438       1.11112729      -1.21669249      -2.02444368       1.12712750       0.01945837
H        0.21753832       0.01107727       3.08713455        0      -0.15446554       0.28413588      -0.20060165      -0.18436678      -0.24260954       0.79692531       0.07746738
H       -1.15027793      -0.52023624       2.02403207        0      -0.14225536      -0.88085472       0.04886305      -0.77534284      -0.17625287       0.35578121       0.08453831
H        0.23935583      -1.72969710       2.31233064        0       0.09851257      -0.12008216       0.44517512      -0.61034039       2.62482037      -0.25269765       0.03973381
H        1.08175655       0.43676087      -2.98681889        0       0.11780971      -0.19489056       0.24505933       2.34860888       0.26483784      -0.76043437       0.08951727
H       -0.30787607      -0.37568935      -2.66676962        0      -0.20406383       0.18730709      -0.06704333      -0.39631733      -0.68513587       0.48927524       0.06972771
H       -0.33210067       1.27619449      -2.61462011        0      -0.08424527       0.19863277      -0.54360836      -0.94888361       2.02083253       0.20320689       0.07559913
12
Properties=species:S:1:pos:R:3:molID:I:1:momenta:R:3:forces:R:3:charge:R:1 Nmols=1 Comp=DMC(1) energy=-589.5599465829177 free_energy=-589.5599465829177 dipole="0.13901674796885694 0.09896105332852287 0.16292891845064353" pbc="F F F"
C       -0.17473782       0.07054155       0.03481386        0       1.16040540      -1.18636983      -0.50850973       1.72979312      -0.82974291      -2.58434069       0.49197918
O       -1.21488456      -0.43322399      -0.13587413        0      -1.75908874       0.20284805      -0.55944254      -3.38048353      -0.63938839      -0.54476710      -0.44032127
O        0.47568936       0.08786511       1.13535888        0      -0.46335345      -0.35713016      -0.65511872       1.53683488       0.23007179       2.22476832      -0.23643094
O        0.66760473       0.36882360      -1.01847256        0      -0.12731339       0.66955048       0.63323806       0.96348153       1.51304396       3.78881354      -0.31250450
C       -0.04941379      -0.59007834       2.28806958        0       0.24623813      -0.12322592       1.15684174       0.62685998      -0.18793068       1.01449098       0.02590806
C        0.29861575       0.54886191      -2.33535229        0       0.07692092       0.74802130      -0.54767552       0.42926224      -3.03753396       0.75950850       0.02912842
H       -0.12346690       0.12523018       3.10648314        0      -0.36090903      -0.05533738      -0.10803759       0.42129924       0.35717393       0.05603939       0.07129502
H       -1.07187533      -0.92380231       2.19899423        0       0.17242390      -0.06683364       0.08376297      -0.16563826      -0.49352212      -0.74814156       0.08207874
H        0.63983338      -1.42666729       2.66042256        0       0.88672869       0.10574762      -0.01115586      -0.81828938       1.02559616      -0.97573903       0.07286299
H        1.26915828       0.43519103      -2.74456626        0      -0.22263989      -0.03180563       0.13167539       0.71716685      -0.22280536      -1.36463947       0.08418074
H       -0.34570346      -0.29856870      -2.47527734        0      -0.14641239       0.01017355      -0.02651810      -0.67227107      -0.36122241      -1.25903062       0.06839604
H       -0.11072956       1.43724231      -2.60394106        0       0.53699986       0.08436157       0.41093991      -1.38801560       2.64626000      -0.36696225       0.06342751
12
Properties=species:S:1:pos:R:3:molID:I:1:momenta:R:3:forces:R:3:charge:R:1 Nmols=1 Comp=DMC(1) energy=-589.7016709634855 free_energy=-589.7016709634855 dipole="0.3172159902647973 0.006607681465114741 -0.14164222430097792" pbc="F F F"
C       -0.13591427      -0.05462047      -0.06799084        0      -1.33882503      -2.06686633      -0.94966986      -4.09745446      -0.66495106       2.21402107       0.47260687
O       -1.33733938      -0.39858464      -0.18109889        0      -0.80242494       0.98639689      -0.36532757       3.91665986       0.74331162      -0.04703918      -0.47513159
O        0.48380399       0.07091719       1.15036856        0       0.71908885      -0.40483036       0.57342653      -0.45239023      -0.36072168      -0.68607042      -0.30364071
O        0.70163615       0.39470773      -0.93520307        0       0.84448429      -0.13641317       0.76175143       0.36310880      -0.52854263      -2.44950858      -0.22103899
C       -0.00325477      -0.58321472       2.37027054        0       0.07058743       1.07826673       0.48457186      -0.60958171       1.38377762      -1.81317418       0.01591074
C        0.30879582       0.55517434      -2.33575419        0       0.68877814       0.95666778      -0.14887296      -0.01530287       0.80380601      -0.66356779       0.02278241
H       -0.19555110       0.26329721       3.06355760        0       0.12339690      -0.04756335      -0.21978803      -0.27073793      -0.84672153      -0.27367514       0.08067971
H       -0.86717119      -1.22445308       2.08747107        0       0.35382092      -0.27642393      -0.05645324       0.47594924       0.55132054       0.55299180       0.08482627
H        0.87875117      -1.10348790       2.62159355        0       0.37006304      -0.00873974       0.32014410       0.57258266      -0.95452717       0.89896077       0.08713400
H        1.14484965       0.38733995      -3.07205693        0      -0.63533974       0.04809600      -0.15075096      -0.18517298       0.31058839       1.36477636       0.07804543
H       -0.49854494      -0.04253344      -2.81477778        0      -0.29661660       0.43151669      -0.36631396       0.14221977      -0.02563010       1.37675807       0.07872107
H       -0.01039829       1.61607123      -2.35257459        0      -0.09701328      -0.56010721       0.11728266       0.16011986      -0.41171001      -0.47447280       0.07910478
12
Properties=species:S:1:pos:R:3:molID:I:1:momenta:R:3:forces:R:3:charge:R:1 Nmols=1 Comp=DMC(1) energy=-589.4731945035933 free_energy=-589.4731945035933 dipole="0.10488937996726241 -0.11427434359353277 0.10768744055158867" pbc="F F F"
C       -0.20260386      -0.15167904      -0.02010399        0       1.26001034       0.51175956       1.62081596       3.75319173       3.06760622      -0.30040464       0.48117040
O       -1.33117634      -0.35182139      -0.21709861        0      -0.58534701       0.06137938      -0.70137852      -1.99538085      -1.18212776      -0.21444208      -0.38313028
O        0.48904178       0.03338219       1.12910738        0      -0.37811886      -1.26565802      -1.18057363      -0.51821323      -1.04134106      -0.52776181      -0.23892393
O        0.71674754       0.35693243      -0.96363279        0      -0.23003361      -0.68872491      -0.96839140      -0.52996053      -1.08285336       0.34832801      -0.30280197
C        0.05950750      -0.51443514       2.34123402        0       1.05600095       0.71649694      -0.40226175      -3.16188752      -0.13910162       1.04342347       0.03493303
C        0.30286760       0.60481908      -2.31580182        0      -0.67794159       1.12159907       0.74012353      -0.96540806       1.17373593       0.42931866       0.03154054
H       -0.26419444       0.24778957       3.08460975        0      -0.27221190      -0.27262024      -0.06163254       0.00606129       0.14427176      -0.78259700       0.05935801
H       -0.77657498      -1.30398657       2.38248619        0      -0.11739537       0.18411705       0.21802712       0.46120422       1.26396654      -1.12686365       0.04723872
H        0.77186374      -1.05081518       2.85001610        0      -0.11475444       0.12176316       0.16948096       2.64129296      -0.99761272       0.64684960       0.07167538
H        1.14301675       0.36415129      -3.07522640        0      -0.22999466       0.01844024       0.31902707      -1.52345641       0.42230896       1.46690742       0.07522712
H       -0.66530215       0.08261307      -2.45419608        0      -0.12554703      -0.43174018       0.49467842       0.72873518      -0.30066672      -0.44734990       0.06831274
H       -0.05991519       1.71000728      -2.30150905        0       0.41533318      -0.07681203      -0.24791523       1.10382121      -1.32818616      -0.53540807       0.05540024
12
Properties=species:S:1:pos:R:3:molID:I:1:momenta:R:3:forces:R:3:charge:R:1 Nmols=1 Comp=DMC(1) energy=-589.4915150695674 free_energy=-589.4915150695674 dipole="0.2636204256905669 0.08794739425343197 0.1251176540721007" pbc="F F F"
C       -0.16275345      -0.06679233      -0.02406945        0      -1.14168963       0.83674322      -1.79971363      -2.24754789      -0.41975986      -0.73636575       0.48211216
O       -1.33289160      -0.35943567      -0.23860481        0       1.50838377      -0.04311511      -0.38310093       1.88361537       0.41323140       0.71469071      -0.46548126
O        0.50254962      -0.06485832       1.10194020        0       1.35569637      -1.18444782       0.17163289       1.36446616       0.52779943      -0.01144249      -0.26337025
O        0.71511235       0.30408687      -0.95669260        0       0.05040968      -0.74321922       1.29620378       0.15207150       1.19801998       0.00000769      -0.26730582
C        0.06215681      -0.47292107       2.38492450        0      -0.75656606       0.98358972       1.13139289      -3.54999155       1.52602903      -1.44729476       0.02311805
C        0.21649975       0.65620377      -2.24733324        0      -0.49303433       0.02476963       0.48819120       3.70845621      -0.32600599      -1.81217928       0.02520873
H       -0.38192539       0.49467711       2.88891187        0       0.29558556       0.33002799      -0.23401134       0.99754659      -1.82689885      -0.38295923       0.06620298
H       -0.81516892      -1.14821529       2.13476009        0      -0.05197972      -0.02777895      -0.23093185       0.88126995       0.27559772       1.03011152       0.07600713
H        0.92637338      -0.90053180       2.79183067        0      -0.11011196       0.30547912      -0.20313258       0.61299123      -0.54281031       1.08730207       0.10100495
H        1.09011060       0.21840140      -2.93485505        0      -0.17016041      -0.33227508       0.11175894      -1.51361864       0.76842560       0.93821606       0.05391664
H       -0.58294759      -0.00905232      -2.38982548        0      -0.39303203       0.03426971      -0.41799486      -1.65195136       0.11571792      -0.64198362       0.09673274
H        0.21850677       1.76742422      -2.57144888        0      -0.09350123      -0.18404321       0.06970550      -0.63730757      -1.70934609       1.26189708       0.07185395
12
Properties=species:S:1:pos:R:3:molID:I:1:momenta:R:3:forces:R:3:charge:R:1 Nmols=1 Comp=DMC(1) energy=-589.1386839371726 free_energy=-589.1386839371726 dipole="0.1288687235844755 0.21080208292836738 -0.013671921472456865" pbc="F F F"
C       -0.18345217      -0.00521415      -0.07819423        0       1.57036321       0.42654090       0.85687610       0.32261341      -2.23513349       2.70956234       0.48134403
O       -1.29645220      -0.37894870      -0.29970236        0      -0.83734476      -0.70946588      -1.55137092      -0.27235896       0.54825171       0.85431474      -0.43376103
O        0.57350982      -0.13256093       1.10686963        0       0.05506064      -1.54648735      -0.03904526      -1.71938372       0.27654995      -0.07471902      -0.29490842
O        0.70265914       0.30863920      -0.94223230        0      -0.85499249       0.90392474      -1.02603919       0.97188293       0.05856803      -1.21541017      -0.22356272
C       -0.00354137      -0.35152926       2.39448722        0       0.59274963       1.46737676      -0.17187657       1.16128139      -0.37974354       2.17020374       0.04003777
C        0.20516629       0.54816228      -2.24106006        0       0.23287770      -1.41715317       0.14952193       2.25176595       2.81836420      -0.65970181       0.01994470
H       -0.18689617       0.60398254       3.00101368        0      -0.17059683       0.18020434       0.20567357      -0.67673740      -0.91699455      -1.46016050       0.05293164
H       -0.76818315      -1.16967853       2.50833026        0      -0.11792305      -0.11514672       0.68335761       0.20175388       1.30622733      -0.72413482       0.06237635
H        0.82158816      -0.75229645       3.08395848        0      -0.42595451       0.33031643       0.26129819      -0.33484917       0.12185410      -1.29623970       0.05622387
H        0.94123247       0.04561235      -2.99557811        0       0.11276280       0.02274206      -0.27454042      -1.34784718       1.40861919       1.20390228       0.08546998
H       -0.80234218       0.36939991      -2.43442588        0      -0.17272865       0.42481879       0.41188648      -1.50912359      -1.48868780      -0.01868093       0.08887449
H        0.12009428       1.72543019      -2.14170935        0       0.01572633       0.03232909       0.49425847       0.95100247      -1.51787513      -1.48893616       0.06502933
12
Properties=species:S:1:pos:R:3:molID:I:1:momenta:R:3:forces:R:3:charge:R:1 Nmols=1 Comp=DMC(1) energy=-589.4568391778621 free_energy=-589.4568391778621 dipole="0.14454667710727792 0.18567324966870266 0.3168460538405524" pbc="F F F"
C       -0.15968532      -0.08480163       0.01200682        0      -0.87085786      -2.49446484       0.62619472      -0.65589283      -0.82964305      -2.40381894       0.47699279
O       -1.27697499      -0.38178622      -0.37291054        0       1.75598131       0.30238310      -0.47726737       0.43861900       0.17985078       2.53722145      -0.44765122
O        0.55304482      -0.20309653       1.12814786        0      -0.98271604      -0.54595665       0.25839540      -0.97074824      -0.09038353       0.11461008      -0.26473135
O        0.69246171       0.30449985      -0.97303737        0       0.65187969      -0.39575251       0.55075497       1.71441500       0.10937166       0.78849482      -0.26147011
C        0.01456213      -0.21274806       2.49076367        0       0.48464884       1.98968903       1.34165086      -0.35317969       0.13118968      -1.12255701       0.02087445
C        0.19106875       0.54837931      -2.25326043        0      -0.89283809       0.82494344      -0.51677234       1.77724932       1.44681901      -2.19394286       0.02991756
H       -0.35165337       0.81957139       2.63219705        0      -0.13266011       0.64987689      -0.25525641       0.74970789      -0.16537820       0.61386478       0.07361653
H       -0.93740253      -0.79344325       2.63087162        0      -0.45564873       0.11463906      -0.24964613       1.19329355      -0.23455567      -0.32789100       0.07278583
H        0.92467378      -0.56486182       3.05415419        0       0.08128381       0.23409955      -0.25989248      -1.41483908       0.57400095      -0.19676247       0.10188989
H        0.69040584       0.06983717      -3.15957344        0      -0.19116390      -0.54871151      -0.24114582      -0.19086989      -0.68574783       1.61709862       0.05317082
H       -0.83174033       0.29039927      -2.25315073        0       0.24839067      -0.37821869      -0.09071563      -1.21061438       0.23281976      -0.32580287       0.09149529
H        0.48658719       1.61129308      -2.55209213        0       0.30370041       0.24747311      -0.68629978      -1.07714064      -0.66834357       0.89948540       0.05310952
12
Properties=species:S:1:pos:R:3:molID:I:1:momenta:R:3:forces:R:3:charge:R:1 Nmols=1 Comp=DMC(1) energy=-588.9052092400492 free_energy=-588.9052092400492 dipole="0.12642638223494543 0.1578645682446407 0.30961012274784616" pbc="F F F"
C       -0.12984351      -0.23480071      -0.00041943        0       1.65843012      -1.12070032      -0.60742115      -1.29828374       2.08790538      -2.75627462       0.49160081
O       -1.27217371      -0.40832843      -0.35896964        0      -1.36752287      -1.02295104       0.46120130       0.41439137      -0.64184186       1.42300882      -0.45549639
O        0.47890926      -0.23209776       1.12718529        0      -0.57439693      -0.74645194      -0.73403868       1.99790029      -0.01944774       1.79842958      -0.27343968
O        0.75804034       0.28391844      -0.92765022        0       1.18271200       0.28255545       0.17309316      -0.85175433       0.81792791      -0.79160431      -0.33272235
C       -0.01544570      -0.01352615       2.51185875        0      -0.72023071       2.27165442      -1.02237473       1.68090620      -2.44810507      -1.17148137       0.01278769
C        0.19719489       0.57538428      -2.34710597        0      -0.08698515      -1.21189820      -0.27676401      -0.64708220      -0.90808186       3.16227071      -0.00384089
H       -0.03669031       1.02154266       2.62941397        0       0.26043274       0.56617702       0.45761754      -1.06674874       1.48772886       0.17492853       0.09696859
H       -0.84864610      -0.69491741       2.47689036        0      -0.32714736      -0.18974768       0.25842779      -0.74327839       0.52031547       1.09487793       0.10175369
H        0.80769823      -0.33242221       3.25805866        0      -0.31002740       0.13730853       0.51203890      -1.07996991      -0.12882844      -1.40812009       0.08131374
H        0.57007804      -0.32747491      -2.70875703        0       0.22497864      -0.27950258       0.40070384       0.97316180      -0.60578169      -2.08380058       0.10313363
H       -0.88100527       0.40781498      -2.29550231        0      -0.00577346       0.70247016       0.29866115      -0.16451686       0.27003209       0.25584603       0.08819118
H        0.36243249       1.57891366      -2.72293270        0       0.06553038       0.61108616       0.07885491       0.78527451      -0.43182306       0.30191936       0.08974998
12
Properties=species:S:1:pos:R:3:molID:I:1:momenta:R:3:forces:R:3:charge:R:1 Nmols=1 Comp=DMC(1) energy=-589.1171893845088 free_energy=-589.1171893845088 dipole="0.12087957522844954 0.27634014756886327 0.020901409630975906" pbc="F F F"
C       -0.11482210      -0.26193481      -0.12222725        0      -0.69830535       0.45478296      -0.95607343      -0.16466847       1.64266609       2.67349524       0.48199670
O       -1.28448329      -0.46237492      -0.31003822        0       0.88821787      -0.36081889       0.91856603       0.92136975      -0.25645905      -0.20323909      -0.41936459
O        0.48815944      -0.27673664       1.12541754        0       0.42775534      -0.73565614       0.94429543      -0.55511795       0.35948718       0.77126440      -0.31277509