12
Properties=species:S:1:pos:R:3:molID:I:1:momenta:R:3:forces:R:3:charge:R:1 Nmols=1 Comp=DMC(1) energy=-589.6902849308996 free_energy=-589.6902849308996 dipole="0.047656910148591074 0.0687095965394945 0.21172223016948108" pbc="F F F"
C       -0.06354920       0.02615914       0.03273994        0      -0.44737561       0.78421690       0.34809138      -1.10480465      -1.74935772      -2.56668991       0.47127016
O       -1.09745824      -0.56171083      -0.33384407        0      -0.77080864      -0.34553195      -0.99471421       1.82966510       1.39045630       2.85528675      -0.46883014
O        0.59339279       0.04178514       1.16893291        0       0.39636663      -0.22023337       0.57113293      -0.82852780       0.42618089       0.49198597      -0.23200909
O        0.70731479       0.58054012      -0.92796504        0       0.75587792       1.13580131      -0.15707984      -0.37199226      -0.70811741      -0.28837154      -0.25090475
C       -0.18480919      -0.38314587       2.27627182        0       0.64955389       0.05187838       0.09945231      -0.57910020       1.05533883       1.25905931       0.02408755
C        0.11790480       0.31317315      -2.18905210        0      -0.17766253      -1.35919244       0.56080676      -1.94280044       1.45788527      -1.67289732       0.03147711
H        0.50081283      -0.52887988       3.16355896        0       0.07554263       0.03098957      -0.07969164      -0.82243213      -0.17215393      -1.20744938       0.08322969
H       -0.99130619       0.37122315       2.57026887        0      -0.21762992      -0.09412675      -0.24154600       1.19574539      -0.26180058      -0.29331200       0.05368733
H       -0.79898220      -1.19689691       1.93909299        0      -0.09493367      -0.18867284      -0.20264161       0.14298628      -1.04896365       0.29163103       0.08471066
H        0.82173383       0.39293513      -3.04121518        0       0.03634113      -0.06211058       0.04681029      -0.07668032      -0.15544425       0.93178879       0.06977969
H       -0.51975018      -0.63449883      -2.23208618        0      -0.28477913      -0.03630762      -0.03394054       1.35192819       0.97979173       0.12089941       0.08751433
H       -0.68493521       1.15580308      -2.35394812        0       0.07950730       0.30328940       0.08332017       1.20601285      -1.21381549       0.07806889       0.04598747
12
Properties=species:S:1:pos:R:3:molID:I:1:momenta:R:3:forces:R:3:charge:R:1 Nmols=1 Comp=DMC(1) energy=-589.8581464232891 free_energy=-589.8581464232891 dipole="-0.015291354576323397 0.020199272162018517 0.06621931241246" pbc="F F F"
C       -0.07256226       0.02708991      -0.01526364        0       0.83922294      -0.20893210      -0.99042886       1.41921418      -0.52597535       0.78917837       0.48061180
O       -1.07223291      -0.55878787      -0.32737218        0       1.51190309       0.13967752       1.44558501      -0.26835234       0.17527842       1.83963010      -0.43956105
O        0.58179560       0.05558219       1.18879871        0      -1.37319755       0.44124713       0.21470506      -1.50438841      -0.28754251      -0.96797166      -0.27019598
O        0.71143557       0.61423481      -0.91491947        0      -0.50451955      -0.55072578       0.03855056      -1.36330305      -1.29527804      -1.14577249      -0.26488369
C       -0.20912251      -0.38974903       2.28118628        0      -0.69509888      -0.28090060      -0.35099539       1.73615121      -0.12950682       1.22432433       0.03044199
C        0.09263137       0.27692989      -2.20940236        0      -0.04947115       0.39011005      -0.42177988       0.74367486       1.48555255      -0.83262390       0.01517202
H        0.49788424      -0.57234541       3.13883759        0       0.12113978       0.04618566       0.02865959      -0.46596132       0.54605368      -0.72091431       0.06890870
H       -0.92088129       0.36004131       2.52298631        0       0.04458149       0.07481962       0.22768641      -0.63686114       0.67993946       0.39530019       0.06403948
H       -0.70339406      -1.32334627       2.16303374        0      -0.06859257       0.10816804       0.15902831      -0.46114293      -0.79123704      -0.78543243       0.06795298
H        0.95298782       0.26401040      -2.90897990        0       0.22474564      -0.29629728      -0.03413962      -0.60161405      -0.18944504       0.25510525       0.07702322
H       -0.55025312      -0.66099300      -2.22922610        0       0.05072912      -0.06845422       0.02520297       1.19105124       1.21686675       0.11160658       0.09999935
H       -0.53085074       1.18051296      -2.43194833        0      -0.10144235       0.20510196      -0.34207416       0.21153175      -0.88470607      -0.16243003       0.07049117
12
Properties=species:S:1:pos:R:3:molID:I:1:momenta:R:3:forces:R:3:charge:R:1 Nmols=1 Comp=DMC(1) energy=-589.9138013583965 free_energy=-589.9138013583965 dipole="0.13818178888119298 0.004118943694667228 0.09874566392644044" pbc="F F F"
C        0.03062728      -0.00314776      -0.02409839        0       0.58483385      -0.83475752       0.50807971      -2.50351111      -0.47968686       0.38453356       0.49084494
O       -1.01906916      -0.55213613      -0.22580850        0       0.24776013      -0.20801221       1.40645557      -1.11932010      -1.02734775      -0.08581771      -0.49018544
O        0.47123057       0.11803662       1.19370513        0      -1.80676764       1.53188363       0.39419680       1.88243163       0.61103528       1.10376000      -0.25967196
O        0.66950112       0.58827018      -0.99336429        0       0.02951210      -0.14455765      -2.38698118       1.53434337       1.16632403       0.12921637      -0.24757178
C       -0.25428736      -0.42277910       2.31330035        0      -0.86184154      -0.12909034       0.55709195       0.78816542       0.20122276       0.26305268       0.02668605
C        0.16313287       0.31016644      -2.27060575        0       1.60903935       0.15131679      -0.27592182      -1.34846796      -2.30026522       0.23616464       0.02252871
H        0.52728991      -0.55022176       3.13309531        0      -0.11201689      -0.19136953       0.08947514      -0.97993578      -0.35499730      -1.18960115       0.07996761
H       -0.93714421       0.33107353       2.67083953        0      -0.01234882      -0.04668393       0.09763960      -0.36350049       0.42906099       0.07326750       0.07133399
H       -0.86384293      -1.28939437       2.02616969        0       0.05226358       0.14526910      -0.11922959       0.59803141      -0.02816902       0.15202983       0.08718704
H        0.98472368       0.06190985      -2.89025300        0       0.34092312      -0.15958495      -0.21292018       0.73516345       0.12523064      -0.75670767       0.07343285
H       -0.47860217      -0.62331020      -2.14060871        0       0.06781309      -0.07445857       0.12426342       0.67760215       0.58202166      -0.38302084       0.07501753
H       -0.54569524       0.98356996      -2.70603331        0      -0.13917032      -0.03995481      -0.18214942       0.09899801       1.07557080       0.07312279       0.07043046
12
Properties=species:S:1:pos:R:3:molID:I:1:momenta:R:3:forces:R:3:charge:R:1 Nmols=1 Comp=DMC(1) energy=-589.8984001792642 free_energy=-589.8984001792642 dipole="0.1008360214080146 -0.13485453099637495 0.07421390383393804" pbc="F F F"
C        0.01552177      -0.04821126      -0.00287336        0      -0.33530178       0.40786936       0.07022683      -0.15775048       2.25308103      -0.22649614       0.47332636
O       -1.02002647      -0.60853422      -0.16290131        0      -0.36599268      -1.35651357       0.30786174      -0.58408265      -1.21222058      -1.13835423      -0.41963537
O        0.39060028       0.25849010       1.25453472        0      -0.47102692       2.79857513       0.93590387       1.04387023       0.01252760      -0.67372295      -0.26061734
O        0.71510890       0.58590829      -1.06835431        0       1.15359541      -0.63083432       0.43895887      -0.15892817      -0.99796426       3.33798352      -0.28203271
C       -0.33010214      -0.40495289       2.32088725        0      -0.97687742      -0.22339995      -0.53574809       0.73629050       0.03896794      -0.17978843       0.02264947
C        0.25768230       0.24782257      -2.33637886        0       0.86523568      -0.73571627      -1.12908701      -0.96290483      -0.88180806       0.30875424       0.03393885
H        0.43954679      -0.78640785       3.01804560        0      -0.02469931      -0.33028174       0.04769755      -0.29272019       0.48465124      -0.13464487       0.07441746
H       -1.00328634       0.32815500       2.81047706        0       0.05148077      -0.15367042       0.12550843       0.32128840      -0.61564281      -0.38276222       0.08056465
H       -0.82215396      -1.28974817       1.90774921        0      -0.20579937       0.21170405      -0.03653705      -0.41197704       0.34788492       0.11719079       0.08500792
H        1.06193771       0.09067008      -2.98841596        0       0.10894675       0.29192022      -0.10795098       1.58377695      -0.15074423      -0.75221798       0.06513025
H       -0.27300162      -0.71618807      -2.26718346        0      -0.17164119      -0.36013098      -0.07871522      -0.37244268       0.45822961      -0.22736856       0.06526932
H       -0.32032697       1.05095970      -2.75267759        0       0.37208006       0.08047848      -0.03811895      -0.74442003       0.26303758      -0.04857316       0.06198114
12
Properties=species:S:1:pos:R:3:molID:I:1:momenta:R:3:forces:R:3:charge:R:1 Nmols=1 Comp=DMC(1) energy=-589.6403822584788 free_energy=-589.6403822584788 dipole="0.048039042948770594 -0.035430912690363046 -0.07864738460628748" pbc="F F F"
C       -0.02732643       0.04302242       0.01862196        0      -0.97296809       0.67029021       0.48555255      -1.66014172      -1.37168350      -0.80983147       0.46876093
O       -1.01575898      -0.70330087      -0.18019247        0       0.72084495      -1.16231171      -1.24836174       2.93031503       2.25452114      -0.03131842      -0.46695315
O        0.37260213       0.41554396       1.26155100        0      -0.38935914       1.96669344      -0.22007133      -1.44108971      -2.19554233      -0.08021791      -0.27026345
O        0.76402207       0.53845485      -0.97760669        0       0.47114903      -0.85785922       1.85929695      -1.70999353      -1.06713667      -0.67858469      -0.26538925
C       -0.37241287      -0.42510046       2.29607448        0      -0.49135395       0.00793343      -0.99804519      -0.61375145       0.40507557      -1.47184903       0.00569122
C        0.33041990       0.18023979      -2.38864759        0       1.37069931       0.18021526       0.23528325      -1.97560964       0.89070740       2.51847901       0.01410062
H        0.32573661      -1.03567839       2.89856402        0       0.11806642      -0.31493059      -0.02165209      -0.33466416       0.64765985      -0.52983826       0.08114606
H       -0.99573802       0.26977782       2.86634486        0       0.06532879       0.12097587      -0.01388467       0.57159177      -0.03041536       0.20643437       0.07955469
H       -1.15450294      -1.06976523       1.72502138        0      -0.14720376       0.33138007      -0.11877555       1.54975316       0.73856522       0.83968507       0.10213129
H        1.15055611       0.08964727      -2.99088161        0      -0.02375455      -0.39733559       0.18110001       2.27650834      -0.31232830      -0.98615403       0.09130699
H       -0.30710125      -0.69719586      -2.42791309        0      -0.39924471      -0.36267137      -0.14475420       0.25164812      -0.40010603       0.54018995       0.08837818
H       -0.31041339       0.95423802      -2.82238328        0      -0.32220430      -0.18237980       0.00431201       0.15543378       0.44068299       0.48300540       0.07153588
12
Properties=species:S:1:pos:R:3:molID:I:1:momenta:R:3:forces:R:3:charge:R:1 Nmols=1 Comp=DMC(1) energy=-589.5374003786247 free_energy=-589.5374003786247 dipole="0.033054108783426996 0.013076735271544479 -0.13321880657577106" pbc="F F F"
C       -0.10095867       0.05389562       0.00432576        0      -0.06073038      -0.26869760      -1.01121378       2.11508173       0.03649978       0.33293288       0.48812291
O       -0.94215016      -0.75169784      -0.23044455        0       0.67536648      -0.71088396      -0.64445818      -1.25982337      -0.36950256      -0.36746236      -0.44539219
O        0.30208129       0.44597766       1.24110705        0      -1.82369465      -0.78310588      -0.25910264      -1.25480786      -0.99879198      -0.99068426      -0.28343002
O        0.75356164       0.49438887      -0.90120067        0      -0.66391688      -0.53237674       0.53756972       0.05461381       0.33273750      -1.15089904      -0.27493899
C       -0.40555727      -0.37282137       2.19671770        0      -0.05208295       1.75646986      -1.16669501      -0.05731345       1.39213263       1.40988066       0.00983741
C        0.39273387       0.18270415      -2.30951091        0       1.24764187       0.11248364       1.51296113      -0.72201416       2.95804950       2.92242266       0.00559562
H        0.32902700      -1.06045871       2.61362610        0       0.33548754      -0.13206080      -0.04458417      -0.08579862      -0.34085227      -0.11710991       0.06296558
H       -0.60393924       0.38873780       3.09247881        0       0.35072408      -0.11362924       0.16313085      -0.48385471      -1.66213136      -1.86573781       0.06385413
H       -1.23480869      -0.93546398       1.60146778        0      -0.28709637       0.00226077      -0.08421941       0.96631654       1.16492769       1.78927693       0.10545597
H        1.24644839       0.00544386      -2.83379503        0      -0.17909765       0.49519277       0.34875949       2.29256862       0.11317687      -1.34171334       0.09592131
H       -0.18939264      -0.64373907      -2.30153922        0       0.07172209      -0.31650675       0.39512324      -1.88716492      -2.77249977       0.04832238       0.09336405
H       -0.23547162       1.02871880      -2.58001398        0       0.38567681       0.49085393       0.25272874       0.32219641       0.14625398      -0.66922879       0.07864422
12
Properties=species:S:1:pos:R:3:molID:I:1:momenta:R:3:forces:R:3:charge:R:1 Nmols=1 Comp=DMC(1) energy=-589.5982268843056 free_energy=-589.5982268843056 dipole="0.15090918615764673 0.14915408089603563 -0.08374971816974569" pbc="F F F"
C       -0.08579788       0.02516087      -0.04894502        0      -0.00145723      -0.69825318       0.22125966      -1.70824854      -2.17579523       1.91862317       0.49198441
O       -0.92117202      -0.80735783      -0.28678536        0      -0.34489652      -0.88608092      -1.74751391      -0.47768659       0.03664823      -0.37324396      -0.48152070
O        0.17410760       0.42249293       1.18515169        0      -2.28253368       0.79215476      -1.05033931       0.55953068       2.34444245      -0.38742942      -0.24833881
O        0.76503820       0.50422952      -0.84916229        0       0.90423536       0.83766549       0.87315664       1.60520123       1.43855296      -1.16534526      -0.22297349
C       -0.39615522      -0.29757558       2.17117217        0       0.09612572       0.09896063       0.99534674      -2.70096148      -0.87841684       3.32496628       0.04533367
C        0.47514991       0.21094270      -2.17310163        0       2.10130295       0.06104070       0.52047829       3.32381509       1.06207812      -1.71759723       0.02404265
H        0.27261631      -1.10214729       2.34333296        0      -0.07522572      -0.26929897      -0.41896311       0.51927998      -1.01860625       0.88686722       0.05923241
H       -0.68715790       0.23889119       3.15613583        0      -0.15706890       0.13364228       0.28592860       1.36621236      -0.01327743      -1.47432374       0.05216488
H       -1.40421004      -0.74485204       2.00287248        0      -0.43695687       0.04525473       0.16275045       0.51746355       0.15232346      -0.97735377       0.05695705
H        1.45914374       0.17486070      -2.72845531        0      -0.13037767      -0.37437934       0.70374387      -0.55867446      -0.67711563       0.66053293       0.06447345
H       -0.10450388      -0.63036782      -2.31281427        0       0.47176734       0.44541559      -0.23742196      -1.02926994      -1.82494560      -0.13765580       0.09147563
H        0.06451283       1.04350716      -2.64924624        0      -0.14491478      -0.18612179      -0.30842596      -1.41666187       1.55411176      -0.55804041       0.06716883
12
Properties=species:S:1:pos:R:3:molID:I:1:momenta:R:3:forces:R:3:charge:R:1 Nmols=1 Comp=DMC(1) energy=-589.5150881265045 free_energy=-589.5150881265045 dipole="0.07208084159651944 -0.0525920616137691 0.12937910770934508" pbc="F F F"
C       -0.13656756      -0.06803458      -0.01641222        0      -0.05839219      -0.81236402      -0.04897961       1.55241069       1.77987947      -0.87427055       0.47839581
O       -0.95170977      -0.86160812      -0.38323099        0      -0.11019589      -0.69738205      -1.15810410       0.45641867       0.22229925       0.42464344      -0.41830071
O        0.04928156       0.49454781       1.16948774        0      -1.93267176       1.15476120       0.05231484       0.11976892      -1.32545603       0.39532940      -0.28839979
O        0.83755370       0.54715312      -0.82199860        0       0.23245550       0.09774428       0.76888049      -2.42717169      -1.01509251       0.33859239      -0.29319275
C       -0.48082236      -0.33596110       2.29613165        0      -0.86921328      -0.68130035       0.85870228      -0.00323674       3.25307039      -1.46371919      -0.00288913
C        0.64209837       0.25840486      -2.20548628        0       2.25419949      -0.28505335      -1.40327522       3.47423977      -3.04232379       1.40805259       0.02201748
H        0.12422680      -1.20389396       2.31652197        0      -0.12940451       0.07354941       0.44695895       0.58559435      -0.69587471       0.63474865       0.08174537
H       -0.30907159       0.47898247       3.10669201        0       0.39607990       0.22822524       0.20376492      -0.96342199      -2.04387662      -0.84566393       0.10673878
H       -1.44319164      -0.57029183       1.80555651        0      -0.48632269       0.10083809      -0.14979246      -0.24962474      -0.04908512       1.62213510       0.10388530
H        1.71068653      -0.00262541      -2.50282604        0      -0.12054433       0.23959459      -0.04641319      -1.15880567       0.71632303      -0.39272389       0.06502137
H        0.10403670      -0.67608070      -2.32756409        0       0.44808421       0.41877172       0.46351432      -0.37540388      -0.20200586       0.12408876       0.06900664
H        0.18124293       0.98518581      -2.73678660        0       0.37592554       0.16261525       0.01242878      -1.01076768       2.40214250      -1.37121276       0.07597163
12
Properties=species:S:1:pos:R:3:molID:I:1:momenta:R:3:forces:R:3:charge:R:1 Nmols=1 Comp=DMC(1) energy=-589.2875126488899 free_energy=-589.2875126488899 dipole="0.2133215050450959 0.06707112035618365 0.07756622644352755" pbc="F F F"
C       -0.13179263      -0.10052520      -0.03940237        0       0.26978576      -0.39792008      -0.19617134      -0.46090465       0.48399476      -0.48557267       0.48316850
O       -0.93109048      -0.91123769      -0.43642216        0       0.89214555      -0.29832623      -0.24873263       0.72785209       0.37395236       0.65729000      -0.43280290
O       -0.06675878       0.50308684       1.17455559        0      -2.05084144      -0.78345586      -0.07891728      -0.02769593      -1.56127706       0.16188471      -0.26040504
O        0.79819093       0.50340681      -0.77803290        0      -0.76077257      -0.86943875       0.23569045       0.94335246       0.11829808      -0.94843966      -0.27267760
C       -0.52931624      -0.26537716       2.28751744        0      -0.22395237       1.41949464      -0.73622890      -0.58235987       1.63905416       2.06158617       0.02718276
C        0.85568461       0.26884070      -2.23391096        0       2.28220524       0.50647159       0.14789468      -0.77805203      -0.91467743       0.60722219       0.01177361
H        0.05295396      -1.10220535       2.64366003        0      -0.44498022       0.12862895      -0.15857857      -0.02189817      -0.83446397      -1.21946611       0.06635430
H       -0.41572753       0.33840041       3.20985978        0      -0.18642631       0.23152798       0.54677246       0.56715842       0.91378410      -0.42488033       0.06164028
H       -1.61581382      -0.34140681       2.38491482        0      -0.28796180      -0.15703270       0.62707483      -0.00555795      -0.90623414      -1.11178115       0.06917277
H        1.90926079       0.35664997      -2.72584702        0      -0.02083888      -0.01632303       0.22819419      -1.48499236      -1.29190866       1.58367027       0.08089620
H        0.10803833      -0.65924686      -2.31293653        0       0.46462819       0.32449920      -0.54485670       2.05125370       1.51517041      -0.67302571       0.09530275
H        0.42076739       1.13811021      -2.68428231        0       0.06700887      -0.08812572       0.17785879      -0.92815571       0.46430739      -0.20848771       0.07039437
12
Properties=species:S:1:pos:R:3:molID:I:1:momenta:R:3:forces:R:3:charge:R:1 Nmols=1 Comp=DMC(1) energy=-588.8562512845434 free_energy=-588.8562512845434 dipole="0.24061385972567667 0.11175691980072838 0.10928045434707104" pbc="F F F"
C       -0.13927612      -0.11245200      -0.04626850        0      -0.64120137       0.27113728       0.11815532      -0.09105401       0.46708227      -0.32456214       0.48683315
O       -0.86393367      -0.94490203      -0.46525723        0       0.71196107      -0.94459530      -0.43777509      -1.00342033      -1.62031052      -0.42591677      -0.43459957
O       -0.21270258       0.43200606       1.16166841        0      -1.99718125      -0.92304161      -1.11771863       1.48077150       2.55621257      -1.83952714      -0.26663951
O        0.80150972       0.48748249      -0.78683809        0       1.39195838       0.39878501      -0.02309660      -0.05598597      -0.26627456       0.89348310      -0.26350548
C       -0.59257463      -0.13024577       2.33986342        0      -0.95178948       0.11429106       0.97073167       0.17738221      -5.29168451      -1.68201413       0.03951755
C        0.95543848       0.31986957      -2.17696960        0       0.44619259       0.82939743       0.62910848       1.87105284      -2.67001354      -1.60419236       0.04097770
H       -0.11458264      -1.19996315       2.31222168        0       0.04117584       0.28054576      -0.29007815       0.08471668       1.41785475       0.87337493       0.03676557
H       -0.24597576       0.50429874       3.05092980        0       0.52566615       0.20177111       0.01969197       0.67818244       1.33121083       2.28600803       0.09579550
H       -1.59546214      -0.48087662       2.38296123        0      -0.41372517       0.03046494      -0.26172026      -1.48356923       0.68750430       0.15224108       0.06448282
H        2.15274101       0.18355354      -2.25748230        0       0.10532876      -0.04241862       0.51025415      -2.49813330       1.12051126      -0.33633007       0.07209564
H        0.61291382      -0.66267378      -2.86947706        0       0.42999640       0.07368017       0.04783810       0.17747852       1.77472090       2.57385870       0.04609724
H        0.40441608       1.13371579      -2.61571235        0       0.35161807      -0.29001721      -0.16539096       0.66257864       0.49318627      -0.56642324       0.08217939
12
Properties=species:S:1:pos:R:3:molID:I:1:momenta:R:3:forces:R:3:charge:R:1 Nmols=1 Comp=DMC(1) energy=-589.2581484370651 free_energy=-589.2581484370651 dipole="0.19883686143813847 0.15637599185868667 0.2298203088929309" pbc="F F F"
C       -0.17961594      -0.11126670      -0.10029419        0      -0.23411501      -0.28946715      -1.48533890       0.60932250      -0.07280128       0.02713250       0.48823205
O       -0.82195786      -1.03349103      -0.48959340        0       0.84829049      -1.93160321      -0.33314806      -0.12329386      -0.40587205      -0.53130847      -0.42739923
O       -0.30258404       0.47840459       1.07041658        0      -0.58187440       2.15147969      -1.00100823       0.22407577       0.29072036       1.85508499      -0.29889377
O        0.86346094       0.49121605      -0.74855085        0      -0.03405926       0.06213170       1.02403525      -1.34720364       0.54555438       0.97900214      -0.28070278
C       -0.67732933      -0.16615260       2.39727242        0      -0.18938651      -0.13615653       0.14558451       2.44081496      -1.83600689      -3.42298391       0.01199295
C        1.02795846       0.35006649      -2.13473507        0       1.25858465       0.44876803      -0.12930618       1.65545246      -1.98691540      -0.18083293       0.03181651
H        0.00578342      -1.12661257       2.48803481        0      -0.29716950      -0.15953435       0.39048782      -2.11455920       1.21806967      -0.33352480       0.07660028
H       -0.24007766       0.47566582       3.05932031        0      -0.53730011      -0.07539968       0.09939028       0.93799818       1.93627421       1.76937703       0.09675740
H       -1.72518483      -0.13575493       2.48208213        0      -0.06779381       0.24661636       0.57161850      -0.99260553      -0.86259969       0.01574492       0.10023627
H        2.15065399       0.49109272      -2.22266370        0       0.26349876       0.28791457      -0.24549489      -0.80690939      -0.94071883      -0.13901273       0.06549893
H        0.66093029      -0.76282422      -2.37740819        0      -0.50681334      -0.32996219       0.56481820       0.68989407       2.49595666      -0.22717532       0.06906372
H        0.71676663       1.19823531      -2.74304465        0       0.07813803      -0.27478724       0.39836171      -1.17298632      -0.38166114       0.18849657       0.06679764
12
Properties=species:S:1:pos:R:3:molID:I:1:momenta:R:3:forces:R:3:charge:R:1 Nmols=1 Comp=DMC(1) energy=-589.0612784992582 free_energy=-589.0612784992582 dipole="0.2665881798106646 0.0850349470215141 -0.04390865997925151" pbc="F F F"
C       -0.17526799      -0.12133575      -0.15290180        0      -0.13567420      -0.17180538       0.46371576      -1.05930826      -1.07753151       2.19984354       0.47836408
O       -0.79718281      -1.12003529      -0.46382870        0       0.23028126      -0.46753826       0.75667365       1.19846933       1.83874669       0.08342324      -0.42672521
O       -0.37588626       0.58637102       1.04829822        0      -1.57599954       1.03155078       0.06471780       0.11554053      -2.16082433       0.73126719      -0.30628800
O        0.84978941       0.48799078      -0.68310237        0       0.30160755       0.15039003       0.69375294       1.14183709       0.11891460      -0.89460751      -0.23943562
C       -0.68629195      -0.13288871       2.32871328        0      -0.44118944       1.20822891      -1.22424586       0.36243291      -1.71905209      -1.42069132       0.02252204
C        1.18219936       0.32993221      -2.09458732        0       0.92391561       0.30363694       1.02651821      -3.86250947      -0.21902659      -0.21534989       0.01522945
H       -0.45003121      -1.27011290       2.48338084        0       0.01538390      -0.28326947      -0.43646730       1.31857469       1.90880494      -0.90221930       0.05691820
H       -0.36738695       0.48114713       3.14014781        0       0.11523523      -0.37009171      -0.38174858       0.58613122       0.28668630       0.12380904       0.08553586
H       -1.70521341      -0.34219151       2.44259299        0       0.04413543      -0.27087405      -0.67200332      -2.24713243       0.89694494      -0.27702846       0.07002467
H        2.22413014       0.30885246      -2.39626708        0       0.59041526      -0.38662324      -0.13223071      -0.31695898       0.37166652       0.58019972       0.09691765
H        0.61856870      -0.58398532      -2.41904418        0      -0.10235955      -0.39187650      -0.48511607       0.96844348       0.02634758       0.13775690       0.07297762
H        0.45937618       1.10339567      -2.53560270        0       0.03424850      -0.35172804       0.32643349       1.79447990      -0.27167705      -0.14640315       0.07395925
12
Properties=species:S:1:pos:R:3:molID:I:1:momenta:R:3:forces:R:3:charge:R:1 Nmols=1 Comp=DMC(1) energy=-589.2779491512132 free_energy=-589.2779491512132 dipole="0.24104771980943973 0.1333792589796756 0.011630507800888914" pbc="F F F"
C       -0.16418163      -0.14070578      -0.05033999        0       0.86155792       0.20996663       1.30428413       0.86981189       1.48439071      -0.58961898       0.48877981
O       -0.72779434      -1.10376065      -0.43407785        0       2.02048515       0.10397786       0.68486060      -0.43837252      -1.11643567      -0.25732229      -0.41222932
O       -0.46435858       0.58955056       1.02991930        0      -0.80135776       0.22242741      -1.11441479       1.86290212       1.97480954      -2.62791904      -0.29522259