12
Properties=species:S:1:pos:R:3:molID:I:1:momenta:R:3:force_mace:R:3:forces_xtb:R:3 Nmols=1 Comp=DMC(1) energy_mace=-588.3519578957532 energy_xtb=-589.6902849309001 pbc="F F F"
C       -0.06354920       0.02615914       0.03273994        0       0.17844136      -0.34376020       1.07719402       0.00744558      -1.04457950      -2.01052065      -1.10480465      -1.74935772      -2.56668991
O       -1.09745824      -0.56171083      -0.33384407        0      -0.37132631       0.01130763       0.61994678       0.70023519       0.94334172       3.35430499       1.82966510       1.39045630       2.85528675
O        0.59339279       0.04178514       1.16893291        0      -0.06068457      -0.59711980      -0.95669715      -0.85431892       0.18149415       0.51735845      -0.82852780       0.42618089       0.49198597
O        0.70731479       0.58054012      -0.92796504        0      -0.60590825       0.76431855      -0.46687405      -0.57105767      -0.54814879      -0.36751069      -0.37199226      -0.70811741      -0.28837154
C       -0.18480919      -0.38314587       2.27627182        0      -0.04014364      -0.06563936      -0.56096274      -0.46310939       1.33526779       1.46585325      -0.57910020       1.05533883       1.25905931
C        0.11790480       0.31317315      -2.18905210        0       0.29358387      -0.58416592       0.23783068      -2.15214081       1.50673751      -1.77236834      -1.94280044       1.45788527      -1.67289732
H        0.50081283      -0.52887988       3.16355896        0       0.01339961       0.14254610       0.22731550      -0.99603078      -0.02101559      -1.43129378      -0.82243213      -0.17215393      -1.20744938
H       -0.99130619       0.37122315       2.57026887        0      -0.01864405       0.28794111      -0.37432648       1.38851171      -0.51294796      -0.24611898       1.19574539      -0.26180058      -0.29331200
H       -0.79898220      -1.19689691       1.93909299        0       0.07867573      -0.13808167       0.14732151      -0.07994957      -1.21814866       0.54363084       0.14298628      -1.04896365       0.29163103
H        0.82173383       0.39293513      -3.04121518        0       0.06493475       0.18520010      -0.03584277      -0.26796411      -0.25257086       1.04309233      -0.07668032      -0.15544425       0.93178879
H       -0.51975018      -0.63449883      -2.23208618        0       0.25642326       0.05312722       0.01555753       1.78559130       1.09566514      -1.24262070       1.35192819       0.97979173       0.12089941
H       -0.68493521       1.15580308      -2.35394812        0       0.21124824       0.28432625       0.06953715       1.50278747      -1.46509493       0.14619327       1.20601285      -1.21381549       0.07806889
12
Properties=species:S:1:pos:R:3:molID:I:1:momenta:R:3:force_mace:R:3:forces_xtb:R:3 Nmols=1 Comp=DMC(1) energy_mace=-588.8004848948289 energy_xtb=-589.7503069070283 pbc="F F F"
C       -0.05398939      -0.02535973       0.00278442        0       0.14064267      -0.79968465      -1.33187752       1.31938709       0.65320844      -0.59205871       0.46017269       0.28993352      -0.69288585
O       -1.09944860      -0.54176791      -0.20360696        0      -0.37619515      -0.20158769       2.88815730      -2.01294851      -1.04964418      -0.12288222      -1.33103411      -0.65802558      -0.02054808
O        0.58239696      -0.00626246       1.14500342        0      -0.70942852      -1.06631708       0.50477165       0.73949464      -0.21629427       0.44461361       0.92997311       0.04867409       0.49743805
O        0.64913387       0.60426094      -0.94821002        0      -0.77157862       0.42380478      -0.02812959       0.21726555      -0.58283002       0.57330055       0.72825365      -0.71903380       0.66860792
C       -0.22120851      -0.37783855       2.25205733        0      -0.34105372       0.22422222      -0.32902268       0.64144943       2.01467924       1.28112661       0.60540411       1.44760321       1.14796257
C        0.15840136       0.35253281      -2.22146294        0       0.86028747       1.09996696      -1.40468514      -0.04045197       1.33644036      -3.02982396       0.16526382       0.99080112      -2.85521357
H        0.44538567      -0.45303125       3.13969452        0       0.38376425       0.04350955       0.04768147      -0.46661623       0.12725746      -0.59222256      -0.17964019       0.23750020      -0.57385767
H       -0.87207403       0.53689237       2.38170553        0      -0.02043697       0.14830509      -0.02912216       0.14488801      -1.65197685       0.36243780      -0.12607577      -1.51216499       0.27155917
H       -0.64823909      -1.35828643       2.12817835        0       0.03804881       0.01131632      -0.02612865      -0.64208703      -0.14600401      -0.19246188      -0.75635321       0.05571092      -0.28020643
H        0.96664654       0.48082892      -2.97332948        0       0.39316195       0.16895937      -0.00119490      -0.05283088       0.39610422       0.50885006       0.27685587       0.71531904       0.62323508
H       -0.04768933      -0.71757029      -2.52681127        0       0.42290814       0.10880694      -0.01169695      -0.63261889       1.21348838       1.23421844      -1.06459825       1.11520619       1.23790187
H       -0.56516698       1.22817054      -2.44011647        0      -0.02012032      -0.16130181      -0.27875282       0.78506879      -2.09442875       0.12490226       0.29177830      -2.01152392      -0.02399306
12
Properties=species:S:1:pos:R:3:molID:I:1:momenta:R:3:force_mace:R:3:forces_xtb:R:3 Nmols=1 Comp=DMC(1) energy_mace=-588.5332445528072 energy_xtb=-589.4781092363105 pbc="F F F"
C       -0.04170691      -0.08071732      -0.07326021        0      -0.09187060      -0.46563149      -0.23377162      -1.69859197      -0.27989884       2.80409012      -2.51531628      -0.61092819       2.74442202
O       -1.15739789      -0.57472435      -0.08101398        0      -1.03903797      -0.96637545       0.72932766       0.57311605       0.24613283      -1.97826256       0.99237966       0.46974998      -1.82437784
O        0.57349774      -0.08789493       1.13713281        0       0.01732137      -1.34393734      -0.61396339       0.81724889       0.50626230      -0.70321104       1.02156380       0.97598046      -0.59504172
O        0.62174732       0.61913013      -0.93542052        0      -0.20116067       0.65642553      -0.03347714      -0.38474291       0.18945846      -1.06331871      -0.22938133      -0.01946764      -0.79260378
C       -0.21944489      -0.33797112       2.24823724        0      -0.51967042       0.24943324       0.08907520      -1.07626051       1.10298779       2.16724137      -1.00064121       0.66121600       1.91367096
C        0.28560285       0.47409553      -2.34459281        0       2.05439044       1.21620704      -0.98181614      -1.19803862      -1.29478124       1.06808950      -1.42628788      -1.05773481       0.92983417
H        0.45994941      -0.38861277       3.10869137        0       0.17029514       0.03870993       0.49603320      -0.04925007      -0.21821640      -0.39146862      -0.02207041      -0.35696561      -0.33193355
H       -0.98780396       0.43933577       2.56886599        0      -0.18452959      -0.06777955       0.17839583       1.20574148      -0.28285718      -0.92116822       0.96440339      -0.01672951      -0.98923929
H       -0.85900576      -1.19835544       2.16061576        0      -0.25661957       0.16893166       0.02782924       0.11919882      -0.91583925      -0.16479178       0.20147848      -0.85727540      -0.20557344
H        1.19018138       1.00343778      -2.70498048        0       0.05322786       0.66126585       0.29761384      -1.17862104      -0.86753119      -0.55164611      -0.94981260      -0.99366092      -0.87676901
H        0.00563212      -0.64918538      -2.42656951        0       0.03570723       0.22809252      -0.06558721       1.10515679       1.67169693      -0.78051193       1.44753270       1.40740459      -0.67861838
H       -0.73899035       0.88441578      -2.66113196        0      -0.03805321      -0.37534194       0.11034054       1.76504309       0.14258579       0.51495799       1.51615169       0.39841104       0.70622985
12
Properties=species:S:1:pos:R:3:molID:I:1:momenta:R:3:force_mace:R:3:forces_xtb:R:3 Nmols=1 Comp=DMC(1) energy_mace=-588.7561786541474 energy_xtb=-589.7867434101892 pbc="F F F"
C       -0.11334467      -0.11491311      -0.00726020        0      -1.10185143       0.03271041       1.15430101       0.70638080       1.14594587      -1.20409061       0.33684312       0.84267017      -1.17045988
O       -1.19676302      -0.60219501      -0.11836629        0      -0.36257284       0.39415561      -1.56207464      -0.21304230      -0.04773231      -0.88791129      -0.07557901       0.11122291      -0.81247866
O        0.59153208      -0.16128224       1.10707277        0       0.32408590      -1.29024258      -0.21467824      -0.96208325       0.01515535       1.13974559      -0.73767892       0.44679157       1.07185759
O        0.57261399       0.66859726      -0.94110513        0      -1.21367741       0.56690899       0.26774320      -0.22493396      -1.29551319       1.98651172       0.20327453      -1.51815293       1.71012175
C       -0.26803695      -0.33821475       2.29762758        0      -0.52874019      -0.29456512       0.01938173       0.98136104      -0.35470994      -0.48764221       0.88445332      -0.61524910      -0.49783764
C        0.42722048       0.55373603      -2.31956451        0       1.04565016       0.20151444       0.58206215      -1.05460732      -1.45006311      -2.24900755      -1.01747839      -1.02982683      -1.72120945
H        0.47781577      -0.46283354       3.09251825        0       0.43969789      -0.25391829       0.33358929      -0.50107916       0.35520430      -0.08738807      -0.39176125       0.42137568      -0.00706034
H       -0.94457878       0.53806613       2.40794747        0       0.13178015       0.24727951      -0.33380249       0.66072133      -0.86522031      -0.06633261       0.54895433      -0.73665736       0.00242090
H       -0.81991530      -1.30465344       2.22899027        0       0.21554819      -0.12778211       0.06787831       0.23373851       0.95426693      -0.15704303       0.11310658       0.80988550      -0.17036908
H        1.08032748       1.33337121      -2.74839255        0      -0.07384950       0.17636315      -0.28245399      -0.40499002      -0.47269615       0.15393132      -0.42290432      -0.26997217       0.19418788
H        0.78053164      -0.48802345      -2.83908031        0       0.91500855       0.44654097      -0.14434994      -1.06391034       2.60853191       1.78387577      -0.88941902       1.99667174       1.51925486
H       -0.67685226       0.76185958      -2.56489955        0       0.20892053      -0.09896498       0.11240360       1.84244467      -0.59316937       0.07535095       1.44818902      -0.45875918      -0.11842793
12
Properties=species:S:1:pos:R:3:molID:I:1:momenta:R:3:force_mace:R:3:forces_xtb:R:3 Nmols=1 Comp=DMC(1) energy_mace=-588.5681387343947 energy_xtb=-589.394072018713 pbc="F F F"
C       -0.14786090      -0.06690212       0.00097695        0      -0.03287893       0.51128645      -0.74892408      -1.14521389      -1.74018008      -0.70895541      -1.57826809      -1.92523581      -0.84498479
O       -1.22619511      -0.60602202      -0.21061408        0      -0.36145660      -0.37735581      -1.07311526       1.60578430       0.89658637       0.49118158       1.52879479       0.91438199       0.59687022
O        0.59938933      -0.24091985       1.12129118        0      -0.13229026      -1.01321988       0.39330844      -0.85079009       0.14576652      -0.41738247      -0.51041568       0.70547906      -0.31779610
O        0.47820898       0.69536621      -0.86608517        0      -1.40663239       0.79637678       1.97141984       1.05656010       0.81108976      -0.97033928       1.79228198       0.66901195      -0.70195819
C       -0.21620621      -0.34869700       2.29289960        0       0.72112355      -0.62914800      -1.01090392      -0.97868163       0.42413379      -0.86692615      -0.82014858       0.08137593      -0.55046000
C        0.50158606       0.56554310      -2.31924334        0       0.97804852       0.14699960      -0.09498508       0.40730495      -0.91678872      -0.28224662       0.40537615      -0.42117510      -0.13398881
H        0.38044750      -0.42590054       3.17913007        0       0.16512567       0.12067135       0.68223685       0.55334541       0.00978689       0.35232134       0.70761672       0.03433651       0.17526237
H       -0.77948423       0.63201386       2.33440373        0       0.00964022       0.20336925       0.04436807       0.18957489      -1.54348042       0.41758179      -0.05088515      -1.38660161       0.22520250
H       -0.80561723      -1.30423559       2.21686830        0      -0.17086889       0.43254494      -0.08258073       0.23533362       1.33739249       0.03015711      -0.04622905       1.19363548       0.04509691
H        0.97460341       1.47599546      -2.75726624        0      -0.21033145       0.33370950      -0.02463611      -0.92062978      -0.31815573       0.58782780      -1.05945534       0.02816042       0.73820827
H        1.39787966      -0.16036209      -2.65322539        0       0.26013751      -0.05618387       0.22804279      -2.70596939       0.99774427       0.98643220      -2.54179978       0.39424651       0.84333123
H       -0.60961506       0.42764856      -2.62629833        0       0.18038308      -0.46905033      -0.28423081       2.55338150      -0.10389515       0.38034811       2.17313202      -0.28761534      -0.07478360
12
Properties=species:S:1:pos:R:3:molID:I:1:momenta:R:3:force_mace:R:3:forces_xtb:R:3 Nmols=1 Comp=DMC(1) energy_mace=-588.4830091853271 energy_xtb=-589.1398061345888 pbc="F F F"
C       -0.18769423      -0.09100903      -0.05214250        0      -0.07921231      -0.35533083      -0.37120247       2.52073482       0.22098217       1.56348465       2.03131644       0.10291159       1.44941618
O       -1.22410845      -0.59407773      -0.25642509        0       0.00922857       0.15757773      -0.64278984      -1.98616078      -1.06136710      -0.65582997      -1.75128263      -0.98915472      -0.27570629
O        0.58784068      -0.29886992       1.10209240        0       0.00988947      -0.73473389      -0.79884644      -0.45752871       0.15590289      -1.31490024      -0.39895870       0.83098947      -1.38107566
O        0.43961481       0.76946001      -0.80726070        0      -0.42151910       1.71134862      -0.36563733       0.62147105       0.97671160      -1.23884668       0.94978163       0.34406679      -0.86086233
C       -0.17990796      -0.37606993       2.24995530        0      -0.88139780      -0.66451495      -0.93764609      -2.01898707       0.80402808       1.34618132      -2.01202521       0.53977003       1.28865495
C        0.59645075       0.59472386      -2.23625643        0       0.97690002      -0.20826312       2.18354263      -1.08365145      -2.34401869      -0.15625622      -1.75423890      -2.21667365      -0.16636165
H        0.39158830      -0.46904417       3.18644178        0       0.56466964      -0.35196153       0.29794489       0.16113610      -0.53759980      -0.85779114       0.11422198      -0.71016413      -0.81541194
H       -0.76385434       0.54862301       2.43667624        0      -0.00104925       0.31378123       0.09636352       0.51309682       0.22207084      -0.13705004       0.44044719       0.42274870      -0.31697842
H       -1.03682437      -1.06147635       2.10733478        0       0.02624042       0.15908636      -0.03119300       0.76824817      -0.53419345       0.38708183       0.77237706      -0.62575899       0.38237821
H        0.43337763       1.63563840      -2.63665271        0      -0.52030766       0.28162908       0.24005605       0.95901843      -1.52901688       0.30486317       1.38097532      -1.33964757       0.04581107
H        1.43707345      -0.22559464      -2.31413401        0       0.30252118       0.06757453       0.12234105      -1.26186437       2.41016226      -0.33096357      -0.64249910       2.49989044      -0.49008160
H       -0.27495740      -0.03775485      -2.72535429        0       0.01403682      -0.37619322       0.20706702       1.26448699       1.21633806       1.09002689       0.86988493       1.14102204       1.14021746
12
Properties=species:S:1:pos:R:3:molID:I:1:momenta:R:3:force_mace:R:3:forces_xtb:R:3 Nmols=1 Comp=DMC(1) energy_mace=-588.4445850839778 energy_xtb=-588.9714531705109 pbc="F F F"
C       -0.12803623      -0.09529636      -0.02917663        0       0.94197263       0.10286995       0.39346288      -3.47063817      -0.11552816      -1.99499269      -4.28952410      -0.70447270      -2.37637693
O       -1.24595134      -0.59546565      -0.32493713        0      -0.08940871      -0.02174073      -1.17731980       3.32595012       1.25833080       0.92023014       3.67599560       1.46363962       0.88046541
O        0.55017239      -0.34855112       1.03504497        0      -1.52026676      -0.83563049      -0.99128055      -0.63304701      -0.19174219       1.49235253      -0.37354809       0.59953981       1.06998627
O        0.45190562       0.86386383      -0.80650589        0       0.89146310       1.18641674       1.43187207      -0.57399732      -0.60512925       3.23635226       0.15709569      -1.07604961       3.37902596
C       -0.26087262      -0.36666268       2.25541553        0      -0.74780099      -0.04922489      -0.30587010       1.43293742      -0.73896801      -1.54261199       1.18906340      -1.19893164      -0.90759310
C        0.61005324       0.53468569      -2.09018031        0      -0.01489146      -0.92381111       1.35420189       0.64248216       0.86141181      -4.09290648       0.40779232       1.28718486      -4.09678488
H        0.46399442      -0.89572523       2.80968824        0       0.18340131      -0.58656450      -0.06435022       0.85123279      -0.02617262       1.70121893       0.97289932       0.16500443       1.91212738
H       -0.44384729       0.67990804       2.51460162        0       0.09407752       0.29869247       0.13718056      -0.52395324      -0.60959366       0.18107222      -0.45995896      -0.70465359       0.18739115
H       -1.01541085      -1.16103440       2.21041646        0       0.09059941       0.20173838       0.11554451      -0.69950308       1.02674053      -0.36527583      -0.80669482       1.06639145      -0.47958162
H        0.43930309       1.51815129      -2.59627421        0       0.03892756       0.18381888      -0.62227808      -0.46047811      -0.96658455      -0.14247450      -0.81719192      -0.61738834      -0.45800640
H        1.69561371       0.45899485      -2.39897441        0       0.04353924       0.84308643      -0.17902776      -1.20014511      -0.88494189       0.48447657      -0.73243937      -1.18228145       0.68547132
H       -0.10243765      -0.27596510      -2.44095925        0       0.08838715      -0.39965114      -0.09213541       1.30915955       0.99217720       0.12255883       1.07651093       0.90201715       0.20387545
12
Properties=species:S:1:pos:R:3:molID:I:1:momenta:R:3:force_mace:R:3:forces_xtb:R:3 Nmols=1 Comp=DMC(1) energy_mace=-588.2856939586281 energy_xtb=-588.692744781684 pbc="F F F"
C       -0.17869222      -0.11078822      -0.06864681        0      -0.76473951       0.97728274      -0.18917659       3.53925084       3.34068305       1.91215916       3.09992882       3.25585872       1.25554722
O       -1.17452005      -0.56125794      -0.40223741        0       0.47114142       0.21772995      -1.75116123      -4.27346497      -2.11203600      -1.78300245      -4.28307040      -2.14176005      -1.90651970
O        0.44614452      -0.40704536       1.05392057        0      -1.36645138      -0.68287796       1.24835409       1.35853430      -0.00355164      -0.04651131       1.70892845       0.87238123      -0.08551499
O        0.48299267       0.91469407      -0.70466985        0       0.01123933      -0.06923658       1.14812912      -0.79161930      -2.21471809      -2.65225935      -0.43283813      -1.98281619      -1.31512400
C       -0.22482839      -0.40934394       2.24249226        0       0.04531750      -1.34207003      -0.24048985      -3.11614206       1.33717855       1.32446829      -2.86224728       0.69444584       1.42076885
C        0.63672452       0.54410651      -2.10622679        0       0.71945557       0.60378278      -0.30224548       1.23859692      -0.20287721       0.66194186       1.24306254       0.05741870      -0.21053504
H        0.37491838      -0.92872382       2.92035962        0      -0.01185933      -0.22499955       0.62765418       1.11879064      -1.13049689       1.08219536       0.76522188      -1.09536655       1.06795139
H       -0.48669861       0.55795602       2.75027872        0      -0.04950227       0.13387651       0.21078016       0.86687171      -0.21676687      -0.96181068       0.93412061       0.18795737      -0.90030859
H       -1.25953299      -0.80951100       2.19839616        0       0.25973948       0.49884551      -0.18772088       0.60294795      -0.37032699      -0.56246263       0.48896790      -0.67020747      -0.36932375
H        0.35405888       1.20015703      -2.86435133        0      -0.28589219       0.11584043      -0.55061401      -1.28596468       1.49193124      -0.40395748      -2.86546800       1.83200718      -0.67035982
H        1.65461975       0.87235508      -2.34282204        0       0.39342767       0.13104816      -0.05851479       0.04702453      -0.88467183       0.26608947       1.21482914      -1.82532773       0.74231453
H        0.23067077      -0.45337028      -2.44093824        0       0.57812370      -0.35922196       0.04500527       0.69517411       0.96565267       1.16314977       0.98856447       0.81540895       0.97110390
12
Properties=species:S:1:pos:R:3:molID:I:1:momenta:R:3:force_mace:R:3:forces_xtb:R:3 Nmols=1 Comp=DMC(1) energy_mace=-588.123242322114 energy_xtb=-588.6960583518643 pbc="F F F"
C       -0.17032647      -0.03192689      -0.02180490        0      -0.42310701      -0.01091954       0.02499486      -3.62038786      -3.67825387      -1.37651477      -4.46854057      -3.88581520      -2.16879303
O       -1.18896005      -0.59714493      -0.54648296        0       0.17644899      -0.41504471      -2.17716102       2.95864100       1.51533675       2.54240202       3.03614629       1.51688048       2.58971699
O        0.43489399      -0.46433540       1.10149071        0       0.74252083      -0.88914151       0.50992261       0.59545151      -0.31329079      -0.61705795       1.07643938       0.34225137      -0.68875844
O        0.43480499       0.86701971      -0.71533881        0      -0.72417886      -0.83913517      -1.08989292       1.47264128       2.35822651      -0.49904555       2.49987429       1.71424070       0.07073493
C       -0.24662265      -0.44903539       2.34161971        0      -0.85229846       0.27717029       1.16643265      -2.38481044       3.08025669      -2.93817277      -2.31453267       2.48687437      -2.14172522
C        0.72868224       0.67987860      -2.15219772        0       1.16416102       1.63748773       0.25195685       1.52693416      -5.20842028       4.70922828       1.07184636      -4.37792462       3.73809267
H        0.11972075      -0.94276789       3.16329607        0      -0.32831273      -0.26469004       0.32703023       1.18005622      -1.91794993       1.34632561       1.16845622      -1.90437499       0.94589636
H       -0.17842688       0.60732096       2.61688732        0       0.27202937       0.26819980      -0.07331561      -0.23359643       0.09456554       0.40854392      -0.41210641       0.35692171       0.42902130
H       -1.30002745      -0.66800704       2.07666841        0       0.26039408      -0.18118524       0.32088703       0.36746120      -0.34005138       0.70917437       0.23617989      -0.21222268       0.71024904
H        0.00799566       1.19090156      -2.61492266        0      -0.67040762      -0.03065815       0.59912040      -2.51680467       2.06514831      -2.50668328      -2.12007743       1.61193232      -2.32384212
H        1.76172922       0.83730583      -2.26757420        0       0.33480178       0.25311724       0.06924310       1.28129817       1.20726635      -0.58558686       1.04599945       1.28569976      -0.32360773
H        0.72462304      -0.45959512      -2.19892869        0       0.04794860       0.19479930       0.07078182      -0.62688414       1.13716609      -1.19261303      -0.81968480       1.06553680      -0.83698476
12
Properties=species:S:1:pos:R:3:molID:I:1:momenta:R:3:force_mace:R:3:forces_xtb:R:3 Nmols=1 Comp=DMC(1) energy_mace=-587.5420714455711 energy_xtb=-587.8535563990389 pbc="F F F"
C       -0.26286244      -0.11293309      -0.04852327        0       0.19874632      -1.38710157      -0.82093766       5.42335589       0.76135738       0.96502967       5.23287383       1.06872047       0.44621154
O       -1.12223089      -0.63468349      -0.61170991        0      -0.21193307      -1.31211136      -0.78465836      -3.13708685      -2.06744326      -0.28541872      -3.38059864      -2.37466775      -0.18629742
O        0.47850359      -0.51417509       1.11986372        0      -0.09943636      -0.60013732       0.31038639      -3.87248122       1.29552055      -0.08971336      -3.22675159       1.46995792      -0.40642750
O        0.41715374       0.86716872      -0.74750855        0       0.69711670       0.63920304       0.56719460       0.66844999      -0.07850001       2.78061553       1.87371795      -0.81037239       5.02202396
C       -0.28907930      -0.37951455       2.39617538        0      -0.41143540       0.28945204       0.01371623      -0.80340711       0.42784263      -3.34582494      -1.15812973       0.04945280      -2.70747355
C        0.78492564       0.76340694      -2.07257204        0      -0.54287053       0.25722818       0.93909342      -0.50434256      -2.85840986      -0.50445519      -0.84248940      -2.18114059      -1.31528653
H       -0.09131530      -1.15489281       3.03210122        0       0.10816014      -0.18587373      -0.24801502       1.54047041      -1.73543173       1.52117659       2.22329648      -1.66462151       1.78797939
H       -0.10315919       0.61714254       2.77218081        0      -0.15805522       0.32714748       0.40001515      -0.12686554       0.06066024       0.01490870      -0.32728659      -0.06076825       0.12655349
H       -1.36383895      -0.72724952       2.31651329        0       0.16220161       0.52198441       0.12922770       1.12357927       1.16573841      -0.71719368       0.36858853       1.50676924      -0.96036802
H       -0.03026510       1.25508864      -2.36914649        0       0.33381583       0.35324319      -0.02034294      -2.68109200       2.23202007      -1.64388902      -3.17103876       2.98794958      -3.22406926
H        1.64484706       1.34712018      -2.31461554        0      -0.08983800       0.64122427      -0.14434941       1.02558926      -0.29836409      -0.01079629       0.88894273      -0.49415551       0.19083122
H        0.52899882      -0.21446853      -2.61876715        0       0.01352799       0.45574137      -0.34133011       1.34383046       1.09500966       1.31556071       1.51887519       0.50287599       1.22632268
12
Properties=species:S:1:pos:R:3:molID:I:1:momenta:R:3:force_mace:R:3:forces_xtb:R:3 Nmols=1 Comp=DMC(1) energy_mace=-588.4506316220727 energy_xtb=-588.9963640516846 pbc="F F F"
C       -0.14696807      -0.20690952      -0.10701134        0       1.12875980      -1.19053237      -0.80328654      -2.75135461      -0.22537856      -0.54584422      -2.96103715       0.05803691      -0.54155732
O       -1.14241809      -0.75491209      -0.62053880        0       0.88078346      -1.47989298       0.90613822       3.66149860       1.67495415       1.82292367       3.41312939       1.41233188       1.65005205
O        0.37655257      -0.49566496       1.12778604        0      -1.88689352       0.35865709      -0.28627690       0.94595371      -0.11146343      -2.99838332       1.12619537       0.77375064      -3.06747998
O        0.47643119       0.88871178      -0.64725134        0       0.86471392      -0.27495543       1.81281037      -0.74524792      -1.91151009      -0.64557174      -0.25907406      -2.44746392       0.09623282
C       -0.28762311      -0.36727942       2.32707185        0      -0.50837243      -0.11885678      -1.65042189      -3.67643697       4.58642910      -1.93338362      -3.19154417       3.58023996      -1.38191440
C        0.69435262       0.86968251      -2.06192020        0      -1.88645953       2.55485225      -1.03830326      -0.13396497      -0.01882467       0.16769517      -0.12531476       0.28067243      -0.25354343
H        0.13918703      -1.10066281       2.84699613        0       0.10810384       0.14088026       0.00705733       0.93037431      -3.48138022       2.53373245       0.36606079      -3.38266861       2.51260009
H       -0.02863477       0.55443175       2.88599695        0       0.38439299       0.31191579       0.25426829      -0.09883750      -0.27988291      -0.40343633       0.19602510       0.26464709      -0.55105232
H       -1.40395224      -0.22738314       2.08324216        0       0.18630944       0.24052457       0.07855748       1.58841752      -0.80472627       0.90669084       1.21565523      -1.07023243       0.92335712